 
             +---------------------------------------------------+
             |                                                   |
             |                   WANNIER90                       |
             |                                                   |
             +---------------------------------------------------+
             |                                                   |
             |        Welcome to the Maximally-Localized         |
             |        Generalized Wannier Functions code         |
             |            http://www.wannier.org                 |
             |                                                   |
             |  Wannier90 v2.x Authors:                          |
             |    Arash A. Mostofi  (Imperial College London)    |
             |    Giovanni Pizzi    (EPFL)                       |
             |    Ivo Souza         (Universidad del Pais Vasco) |
             |    Jonathan R. Yates (University of Oxford)       |
             |                                                   |
             |  Wannier90 Contributors:                          |
             |    Young-Su Lee       (KIST, S. Korea)            |
             |    Matthew Shelley    (Imperial College London)   |
             |    Nicolas Poilvert   (Penn State University)     |
             |    Raffaello Bianco   (Paris 6 and CNRS)          |
             |    Gabriele Sclauzero (ETH Zurich)                |
             |    David Strubbe (MIT, USA)                       |
             |    Rei Sakuma (Lund University, Sweden)           |
             |    Yusuke Nomura (U. Tokyo, Japan)                |
             |    Takashi Koretsune (Riken, Japan)               |
             |    Yoshiro Nohara (ASMS Co. Ltd., Japan)          |
             |    Ryotaro Arita (Riken, Japan)                   |
             |    Lorenzo Paulatto (UPMC Paris)                  |
             |    Florian Thole (ETH Zurich)                     |
             |    Pablo Garcia Fernandez (Unican, Spain)         |
             |    Dominik Gresch (ETH Zurich)                    |
             |    Samuel Ponce (University of Oxford)            |
             |    Marco Gibertini (EPFL)                         |
             |    Christian Stieger (ETHZ, CH)                   |
             |    Stepan Tsirkin (Universidad del Pais Vasco)    |
             |                                                   |
             |  Wannier77 Authors:                               |
             |    Nicola Marzari    (EPFL)                       |
             |    Ivo Souza         (Universidad del Pais Vasco) |
             |    David Vanderbilt  (Rutgers University)         |
             |                                                   |
             |  Please cite                                      |
             |                                                   |
             |  [ref] "An updated version of Wannier90:          |
             |        A Tool for Obtaining Maximally Localised   |
             |        Wannier Functions", A. A. Mostofi,         |
             |        J. R. Yates, G. Pizzi, Y. S. Lee,          |
             |        I. Souza, D. Vanderbilt and N. Marzari,    |
             |        Comput. Phys. Commun. 185, 2309 (2014)     |
             |        http://dx.doi.org/10.1016/j.cpc.2014.05.003|
             |                                                   |
             |  in any publications arising from the use of      |
             |  this code. For the method please cite            |
             |                                                   |
             |  [ref] "Maximally Localized Generalised Wannier   |
             |         Functions for Composite Energy Bands"     |
             |         N. Marzari and D. Vanderbilt              |
             |         Phys. Rev. B 56 12847 (1997)              |
             |                                                   |
             |  [ref] "Maximally Localized Wannier Functions     |
             |         for Entangled Energy Bands"               |
             |         I. Souza, N. Marzari and D. Vanderbilt    |
             |         Phys. Rev. B 65 035109 (2001)             |
             |                                                   |
             |                                                   |
             | Copyright (c) 1996-2017                           |
             |        Arash A. Mostofi, Jonathan R. Yates,       |
             |        Young-Su Lee, Giovanni Pizzi, Ivo Souza,   |
             |        David Vanderbilt and Nicola Marzari        |
             |                                                   |
             |        Release: 2.1.0   13th January 2017         |
             |                                                   |
             | This program is free software; you can            |
             | redistribute it and/or modify it under the terms  |
             | of the GNU General Public License as published by |
             | the Free Software Foundation; either version 2 of |
             | the License, or (at your option) any later version|
             |                                                   |
             | This program is distributed in the hope that it   |
             | will be useful, but WITHOUT ANY WARRANTY; without |
             | even the implied warranty of MERCHANTABILITY or   |
             | FITNESS FOR A PARTICULAR PURPOSE. See the GNU     |
             | General Public License for more details.          |
             |                                                   |
             | You should have received a copy of the GNU General|
             | Public License along with this program; if not,   |
             | write to the Free Software Foundation, Inc.,      |
             | 675 Mass Ave, Cambridge, MA 02139, USA.           |
             |                                                   |
             +---------------------------------------------------+
             |    Execution started on 21Mar2018 at 12:30:47     |
             +---------------------------------------------------+
 
 ******************************************************************************
 * -> Using CODATA 2006 constant values                                       *
 *    (http://physics.nist.gov/cuu/Constants/index.html)                      *
 * -> Using Bohr value from CODATA                                            *
 ******************************************************************************
 
 
                                    ------
                                    SYSTEM
                                    ------
 
                              Lattice Vectors (Ang)
                    a_1     5.222080   0.000000   0.000000
                    a_2     0.000000   5.222080   0.000000
                    a_3     0.000000   0.000000  30.000000
 
                   Unit Cell Volume:     818.10366  (Ang^3)
 
                        Reciprocal-Space Vectors (Ang^-1)
                    b_1     1.203196   0.000000   0.000000
                    b_2     0.000000   1.203196   0.000000
                    b_3     0.000000   0.000000   0.209440
  
 *----------------------------------------------------------------------------*
 |   Site       Fractional Coordinate          Cartesian Coordinate (Ang)     |
 +----------------------------------------------------------------------------+
 | Si   1   0.01337   0.99007   0.39194   |    0.06983   5.17022  11.75832    |
 | Si   2   0.49007   0.51337   0.39194   |    2.55918   2.68087  11.75832    |
 | Si   3   0.34243   0.16728   0.43626   |    1.78821   0.87354  13.08770    |
 | Si   4   0.19280   0.69280   0.33985   |    1.00682   3.61786  10.19556    |
 | Si   5   0.66728   0.84243   0.43626   |    3.48458   4.39925  13.08770    |
 | Si   6   0.90181   0.40181   0.36702   |    4.70934   2.09830  11.01058    |
 | Si   7   0.99007   0.01337   0.54660   |    5.17023   0.06982  16.39802    |
 | Si   8   0.51337   0.49007   0.54660   |    2.68086   2.55919  16.39802    |
 | Si   9   0.16728   0.34243   0.50229   |    0.87354   1.78821  15.06865    |
 | Si  10   0.69280   0.19280   0.59869   |    3.61786   1.00682  17.96076    |
 | Si  11   0.84243   0.66728   0.50229   |    4.39925   3.48458  15.06865    |
 | Si  12   0.40181   0.90181   0.57153   |    2.09830   4.70934  17.14578    |
 *----------------------------------------------------------------------------*
  
                                -----------
                                PROJECTIONS
                                -----------
  
 +----------------------------------------------------------------------------+
 |     Frac. Coord.   l mr  r        z-axis               x-axis          Z/a |
 +----------------------------------------------------------------------------+
 |  0.01  0.99  0.39 -3  1  1  0.000  0.000  1.000  1.000  0.000  0.000   1.0 |
 |  0.01  0.99  0.39 -3  2  1  0.000  0.000  1.000  1.000  0.000  0.000   1.0 |
 |  0.01  0.99  0.39 -3  3  1  0.000  0.000  1.000  1.000  0.000  0.000   1.0 |
 |  0.01  0.99  0.39 -3  4  1  0.000  0.000  1.000  1.000  0.000  0.000   1.0 |
 |  0.49  0.51  0.39 -3  1  1  0.000  0.000  1.000  1.000  0.000  0.000   1.0 |
 |  0.49  0.51  0.39 -3  2  1  0.000  0.000  1.000  1.000  0.000  0.000   1.0 |
 |  0.49  0.51  0.39 -3  3  1  0.000  0.000  1.000  1.000  0.000  0.000   1.0 |
 |  0.49  0.51  0.39 -3  4  1  0.000  0.000  1.000  1.000  0.000  0.000   1.0 |
 |  0.34  0.17  0.44 -3  1  1  0.000  0.000  1.000  1.000  0.000  0.000   1.0 |
 |  0.34  0.17  0.44 -3  2  1  0.000  0.000  1.000  1.000  0.000  0.000   1.0 |
 |  0.34  0.17  0.44 -3  3  1  0.000  0.000  1.000  1.000  0.000  0.000   1.0 |
 |  0.34  0.17  0.44 -3  4  1  0.000  0.000  1.000  1.000  0.000  0.000   1.0 |
 |  0.19  0.69  0.34 -2  1  1  0.000  0.000  1.000  1.000  0.000  0.000   1.0 |
 |  0.19  0.69  0.34 -2  2  1  0.000  0.000  1.000  1.000  0.000  0.000   1.0 |
 |  0.19  0.69  0.34 -2  3  1  0.000  0.000  1.000  1.000  0.000  0.000   1.0 |
 |  0.19  0.69  0.34  1  1  1  0.000  0.000  1.000  1.000  0.000  0.000   1.0 |
 |  0.66  0.84  0.44 -3  1  1  0.000  0.000  1.000  1.000  0.000  0.000   1.0 |
 |  0.66  0.84  0.44 -3  2  1  0.000  0.000  1.000  1.000  0.000  0.000   1.0 |
 |  0.66  0.84  0.44 -3  3  1  0.000  0.000  1.000  1.000  0.000  0.000   1.0 |
 |  0.66  0.84  0.44 -3  4  1  0.000  0.000  1.000  1.000  0.000  0.000   1.0 |
 |  0.90  0.40  0.37 -2  1  1  0.000  0.000  1.000  1.000  0.000  0.000   1.0 |
 |  0.90  0.40  0.37 -2  2  1  0.000  0.000  1.000  1.000  0.000  0.000   1.0 |
 |  0.90  0.40  0.37 -2  3  1  0.000  0.000  1.000  1.000  0.000  0.000   1.0 |
 |  0.90  0.40  0.37  1  1  1  0.000  0.000  1.000  1.000  0.000  0.000   1.0 |
 |  0.99  0.01  0.55 -3  1  1  0.000  0.000  1.000  1.000  0.000  0.000   1.0 |
 |  0.99  0.01  0.55 -3  2  1  0.000  0.000  1.000  1.000  0.000  0.000   1.0 |
 |  0.99  0.01  0.55 -3  3  1  0.000  0.000  1.000  1.000  0.000  0.000   1.0 |
 |  0.99  0.01  0.55 -3  4  1  0.000  0.000  1.000  1.000  0.000  0.000   1.0 |
 |  0.51  0.49  0.55 -3  1  1  0.000  0.000  1.000  1.000  0.000  0.000   1.0 |
 |  0.51  0.49  0.55 -3  2  1  0.000  0.000  1.000  1.000  0.000  0.000   1.0 |
 |  0.51  0.49  0.55 -3  3  1  0.000  0.000  1.000  1.000  0.000  0.000   1.0 |
 |  0.51  0.49  0.55 -3  4  1  0.000  0.000  1.000  1.000  0.000  0.000   1.0 |
 |  0.17  0.34  0.50 -3  1  1  0.000  0.000  1.000  1.000  0.000  0.000   1.0 |
 |  0.17  0.34  0.50 -3  2  1  0.000  0.000  1.000  1.000  0.000  0.000   1.0 |
 |  0.17  0.34  0.50 -3  3  1  0.000  0.000  1.000  1.000  0.000  0.000   1.0 |
 |  0.17  0.34  0.50 -3  4  1  0.000  0.000  1.000  1.000  0.000  0.000   1.0 |
 |  0.69  0.19  0.60 -2  1  1  0.000  0.000  1.000  1.000  0.000  0.000   1.0 |
 |  0.69  0.19  0.60 -2  2  1  0.000  0.000  1.000  1.000  0.000  0.000   1.0 |
 |  0.69  0.19  0.60 -2  3  1  0.000  0.000  1.000  1.000  0.000  0.000   1.0 |
 |  0.69  0.19  0.60  1  1  1  0.000  0.000  1.000  1.000  0.000  0.000   1.0 |
 |  0.84  0.66  0.50 -3  1  1  0.000  0.000  1.000  1.000  0.000  0.000   1.0 |
 |  0.84  0.66  0.50 -3  2  1  0.000  0.000  1.000  1.000  0.000  0.000   1.0 |
 |  0.84  0.66  0.50 -3  3  1  0.000  0.000  1.000  1.000  0.000  0.000   1.0 |
 |  0.84  0.66  0.50 -3  4  1  0.000  0.000  1.000  1.000  0.000  0.000   1.0 |
 |  0.40  0.90  0.57 -2  1  1  0.000  0.000  1.000  1.000  0.000  0.000   1.0 |
 |  0.40  0.90  0.57 -2  2  1  0.000  0.000  1.000  1.000  0.000  0.000   1.0 |
 |  0.40  0.90  0.57 -2  3  1  0.000  0.000  1.000  1.000  0.000  0.000   1.0 |
 |  0.40  0.90  0.57  1  1  1  0.000  0.000  1.000  1.000  0.000  0.000   1.0 |
 +----------------------------------------------------------------------------+
  
                                ------------
                                K-POINT GRID
                                ------------
  
             Grid size = 15 x 15 x  1      Total points =  225
  
 *----------------------------------------------------------------------------*
 | k-point      Fractional Coordinate        Cartesian Coordinate (Ang^-1)    |
 +----------------------------------------------------------------------------+
 |     1    0.00000   0.00000   0.00000   |    0.00000   0.00000   0.00000    |
 |     2    0.00000   0.06667   0.00000   |    0.00000   0.08021   0.00000    |
 |     3    0.00000   0.13333   0.00000   |    0.00000   0.16043   0.00000    |
 |     4    0.00000   0.20000   0.00000   |    0.00000   0.24064   0.00000    |
 |     5    0.00000   0.26667   0.00000   |    0.00000   0.32085   0.00000    |
 |     6    0.00000   0.33333   0.00000   |    0.00000   0.40107   0.00000    |
 |     7    0.00000   0.40000   0.00000   |    0.00000   0.48128   0.00000    |
 |     8    0.00000   0.46667   0.00000   |    0.00000   0.56149   0.00000    |
 |     9    0.00000   0.53333   0.00000   |    0.00000   0.64170   0.00000    |
 |    10    0.00000   0.60000   0.00000   |    0.00000   0.72192   0.00000    |
 |    11    0.00000   0.66667   0.00000   |    0.00000   0.80213   0.00000    |
 |    12    0.00000   0.73333   0.00000   |    0.00000   0.88234   0.00000    |
 |    13    0.00000   0.80000   0.00000   |    0.00000   0.96256   0.00000    |
 |    14    0.00000   0.86667   0.00000   |    0.00000   1.04277   0.00000    |
 |    15    0.00000   0.93333   0.00000   |    0.00000   1.12298   0.00000    |
 |    16    0.06667   0.00000   0.00000   |    0.08021   0.00000   0.00000    |
 |    17    0.06667   0.06667   0.00000   |    0.08021   0.08021   0.00000    |
 |    18    0.06667   0.13333   0.00000   |    0.08021   0.16043   0.00000    |
 |    19    0.06667   0.20000   0.00000   |    0.08021   0.24064   0.00000    |
 |    20    0.06667   0.26667   0.00000   |    0.08021   0.32085   0.00000    |
 |    21    0.06667   0.33333   0.00000   |    0.08021   0.40107   0.00000    |
 |    22    0.06667   0.40000   0.00000   |    0.08021   0.48128   0.00000    |
 |    23    0.06667   0.46667   0.00000   |    0.08021   0.56149   0.00000    |
 |    24    0.06667   0.53333   0.00000   |    0.08021   0.64170   0.00000    |
 |    25    0.06667   0.60000   0.00000   |    0.08021   0.72192   0.00000    |
 |    26    0.06667   0.66667   0.00000   |    0.08021   0.80213   0.00000    |
 |    27    0.06667   0.73333   0.00000   |    0.08021   0.88234   0.00000    |
 |    28    0.06667   0.80000   0.00000   |    0.08021   0.96256   0.00000    |
 |    29    0.06667   0.86667   0.00000   |    0.08021   1.04277   0.00000    |
 |    30    0.06667   0.93333   0.00000   |    0.08021   1.12298   0.00000    |
 |    31    0.13333   0.00000   0.00000   |    0.16043   0.00000   0.00000    |
 |    32    0.13333   0.06667   0.00000   |    0.16043   0.08021   0.00000    |
 |    33    0.13333   0.13333   0.00000   |    0.16043   0.16043   0.00000    |
 |    34    0.13333   0.20000   0.00000   |    0.16043   0.24064   0.00000    |
 |    35    0.13333   0.26667   0.00000   |    0.16043   0.32085   0.00000    |
 |    36    0.13333   0.33333   0.00000   |    0.16043   0.40107   0.00000    |
 |    37    0.13333   0.40000   0.00000   |    0.16043   0.48128   0.00000    |
 |    38    0.13333   0.46667   0.00000   |    0.16043   0.56149   0.00000    |
 |    39    0.13333   0.53333   0.00000   |    0.16043   0.64170   0.00000    |
 |    40    0.13333   0.60000   0.00000   |    0.16043   0.72192   0.00000    |
 |    41    0.13333   0.66667   0.00000   |    0.16043   0.80213   0.00000    |
 |    42    0.13333   0.73333   0.00000   |    0.16043   0.88234   0.00000    |
 |    43    0.13333   0.80000   0.00000   |    0.16043   0.96256   0.00000    |
 |    44    0.13333   0.86667   0.00000   |    0.16043   1.04277   0.00000    |
 |    45    0.13333   0.93333   0.00000   |    0.16043   1.12298   0.00000    |
 |    46    0.20000   0.00000   0.00000   |    0.24064   0.00000   0.00000    |
 |    47    0.20000   0.06667   0.00000   |    0.24064   0.08021   0.00000    |
 |    48    0.20000   0.13333   0.00000   |    0.24064   0.16043   0.00000    |
 |    49    0.20000   0.20000   0.00000   |    0.24064   0.24064   0.00000    |
 |    50    0.20000   0.26667   0.00000   |    0.24064   0.32085   0.00000    |
 |    51    0.20000   0.33333   0.00000   |    0.24064   0.40107   0.00000    |
 |    52    0.20000   0.40000   0.00000   |    0.24064   0.48128   0.00000    |
 |    53    0.20000   0.46667   0.00000   |    0.24064   0.56149   0.00000    |
 |    54    0.20000   0.53333   0.00000   |    0.24064   0.64170   0.00000    |
 |    55    0.20000   0.60000   0.00000   |    0.24064   0.72192   0.00000    |
 |    56    0.20000   0.66667   0.00000   |    0.24064   0.80213   0.00000    |
 |    57    0.20000   0.73333   0.00000   |    0.24064   0.88234   0.00000    |
 |    58    0.20000   0.80000   0.00000   |    0.24064   0.96256   0.00000    |
 |    59    0.20000   0.86667   0.00000   |    0.24064   1.04277   0.00000    |
 |    60    0.20000   0.93333   0.00000   |    0.24064   1.12298   0.00000    |
 |    61    0.26667   0.00000   0.00000   |    0.32085   0.00000   0.00000    |
 |    62    0.26667   0.06667   0.00000   |    0.32085   0.08021   0.00000    |
 |    63    0.26667   0.13333   0.00000   |    0.32085   0.16043   0.00000    |
 |    64    0.26667   0.20000   0.00000   |    0.32085   0.24064   0.00000    |
 |    65    0.26667   0.26667   0.00000   |    0.32085   0.32085   0.00000    |
 |    66    0.26667   0.33333   0.00000   |    0.32085   0.40107   0.00000    |
 |    67    0.26667   0.40000   0.00000   |    0.32085   0.48128   0.00000    |
 |    68    0.26667   0.46667   0.00000   |    0.32085   0.56149   0.00000    |
 |    69    0.26667   0.53333   0.00000   |    0.32085   0.64170   0.00000    |
 |    70    0.26667   0.60000   0.00000   |    0.32085   0.72192   0.00000    |
 |    71    0.26667   0.66667   0.00000   |    0.32085   0.80213   0.00000    |
 |    72    0.26667   0.73333   0.00000   |    0.32085   0.88234   0.00000    |
 |    73    0.26667   0.80000   0.00000   |    0.32085   0.96256   0.00000    |
 |    74    0.26667   0.86667   0.00000   |    0.32085   1.04277   0.00000    |
 |    75    0.26667   0.93333   0.00000   |    0.32085   1.12298   0.00000    |
 |    76    0.33333   0.00000   0.00000   |    0.40107   0.00000   0.00000    |
 |    77    0.33333   0.06667   0.00000   |    0.40107   0.08021   0.00000    |
 |    78    0.33333   0.13333   0.00000   |    0.40107   0.16043   0.00000    |
 |    79    0.33333   0.20000   0.00000   |    0.40107   0.24064   0.00000    |
 |    80    0.33333   0.26667   0.00000   |    0.40107   0.32085   0.00000    |
 |    81    0.33333   0.33333   0.00000   |    0.40107   0.40107   0.00000    |
 |    82    0.33333   0.40000   0.00000   |    0.40107   0.48128   0.00000    |
 |    83    0.33333   0.46667   0.00000   |    0.40107   0.56149   0.00000    |
 |    84    0.33333   0.53333   0.00000   |    0.40107   0.64170   0.00000    |
 |    85    0.33333   0.60000   0.00000   |    0.40107   0.72192   0.00000    |
 |    86    0.33333   0.66667   0.00000   |    0.40107   0.80213   0.00000    |
 |    87    0.33333   0.73333   0.00000   |    0.40107   0.88234   0.00000    |
 |    88    0.33333   0.80000   0.00000   |    0.40107   0.96256   0.00000    |
 |    89    0.33333   0.86667   0.00000   |    0.40107   1.04277   0.00000    |
 |    90    0.33333   0.93333   0.00000   |    0.40107   1.12298   0.00000    |
 |    91    0.40000   0.00000   0.00000   |    0.48128   0.00000   0.00000    |
 |    92    0.40000   0.06667   0.00000   |    0.48128   0.08021   0.00000    |
 |    93    0.40000   0.13333   0.00000   |    0.48128   0.16043   0.00000    |
 |    94    0.40000   0.20000   0.00000   |    0.48128   0.24064   0.00000    |
 |    95    0.40000   0.26667   0.00000   |    0.48128   0.32085   0.00000    |
 |    96    0.40000   0.33333   0.00000   |    0.48128   0.40107   0.00000    |
 |    97    0.40000   0.40000   0.00000   |    0.48128   0.48128   0.00000    |
 |    98    0.40000   0.46667   0.00000   |    0.48128   0.56149   0.00000    |
 |    99    0.40000   0.53333   0.00000   |    0.48128   0.64170   0.00000    |
 |   100    0.40000   0.60000   0.00000   |    0.48128   0.72192   0.00000    |
 |   101    0.40000   0.66667   0.00000   |    0.48128   0.80213   0.00000    |
 |   102    0.40000   0.73333   0.00000   |    0.48128   0.88234   0.00000    |
 |   103    0.40000   0.80000   0.00000   |    0.48128   0.96256   0.00000    |
 |   104    0.40000   0.86667   0.00000   |    0.48128   1.04277   0.00000    |
 |   105    0.40000   0.93333   0.00000   |    0.48128   1.12298   0.00000    |
 |   106    0.46667   0.00000   0.00000   |    0.56149   0.00000   0.00000    |
 |   107    0.46667   0.06667   0.00000   |    0.56149   0.08021   0.00000    |
 |   108    0.46667   0.13333   0.00000   |    0.56149   0.16043   0.00000    |
 |   109    0.46667   0.20000   0.00000   |    0.56149   0.24064   0.00000    |
 |   110    0.46667   0.26667   0.00000   |    0.56149   0.32085   0.00000    |
 |   111    0.46667   0.33333   0.00000   |    0.56149   0.40107   0.00000    |
 |   112    0.46667   0.40000   0.00000   |    0.56149   0.48128   0.00000    |
 |   113    0.46667   0.46667   0.00000   |    0.56149   0.56149   0.00000    |
 |   114    0.46667   0.53333   0.00000   |    0.56149   0.64170   0.00000    |
 |   115    0.46667   0.60000   0.00000   |    0.56149   0.72192   0.00000    |
 |   116    0.46667   0.66667   0.00000   |    0.56149   0.80213   0.00000    |
 |   117    0.46667   0.73333   0.00000   |    0.56149   0.88234   0.00000    |
 |   118    0.46667   0.80000   0.00000   |    0.56149   0.96256   0.00000    |
 |   119    0.46667   0.86667   0.00000   |    0.56149   1.04277   0.00000    |
 |   120    0.46667   0.93333   0.00000   |    0.56149   1.12298   0.00000    |
 |   121    0.53333   0.00000   0.00000   |    0.64170   0.00000   0.00000    |
 |   122    0.53333   0.06667   0.00000   |    0.64170   0.08021   0.00000    |
 |   123    0.53333   0.13333   0.00000   |    0.64170   0.16043   0.00000    |
 |   124    0.53333   0.20000   0.00000   |    0.64170   0.24064   0.00000    |
 |   125    0.53333   0.26667   0.00000   |    0.64170   0.32085   0.00000    |
 |   126    0.53333   0.33333   0.00000   |    0.64170   0.40107   0.00000    |
 |   127    0.53333   0.40000   0.00000   |    0.64170   0.48128   0.00000    |
 |   128    0.53333   0.46667   0.00000   |    0.64170   0.56149   0.00000    |
 |   129    0.53333   0.53333   0.00000   |    0.64170   0.64170   0.00000    |
 |   130    0.53333   0.60000   0.00000   |    0.64170   0.72192   0.00000    |
 |   131    0.53333   0.66667   0.00000   |    0.64170   0.80213   0.00000    |
 |   132    0.53333   0.73333   0.00000   |    0.64170   0.88234   0.00000    |
 |   133    0.53333   0.80000   0.00000   |    0.64170   0.96256   0.00000    |
 |   134    0.53333   0.86667   0.00000   |    0.64170   1.04277   0.00000    |
 |   135    0.53333   0.93333   0.00000   |    0.64170   1.12298   0.00000    |
 |   136    0.60000   0.00000   0.00000   |    0.72192   0.00000   0.00000    |
 |   137    0.60000   0.06667   0.00000   |    0.72192   0.08021   0.00000    |
 |   138    0.60000   0.13333   0.00000   |    0.72192   0.16043   0.00000    |
 |   139    0.60000   0.20000   0.00000   |    0.72192   0.24064   0.00000    |
 |   140    0.60000   0.26667   0.00000   |    0.72192   0.32085   0.00000    |
 |   141    0.60000   0.33333   0.00000   |    0.72192   0.40107   0.00000    |
 |   142    0.60000   0.40000   0.00000   |    0.72192   0.48128   0.00000    |
 |   143    0.60000   0.46667   0.00000   |    0.72192   0.56149   0.00000    |
 |   144    0.60000   0.53333   0.00000   |    0.72192   0.64170   0.00000    |
 |   145    0.60000   0.60000   0.00000   |    0.72192   0.72192   0.00000    |
 |   146    0.60000   0.66667   0.00000   |    0.72192   0.80213   0.00000    |
 |   147    0.60000   0.73333   0.00000   |    0.72192   0.88234   0.00000    |
 |   148    0.60000   0.80000   0.00000   |    0.72192   0.96256   0.00000    |
 |   149    0.60000   0.86667   0.00000   |    0.72192   1.04277   0.00000    |
 |   150    0.60000   0.93333   0.00000   |    0.72192   1.12298   0.00000    |
 |   151    0.66667   0.00000   0.00000   |    0.80213   0.00000   0.00000    |
 |   152    0.66667   0.06667   0.00000   |    0.80213   0.08021   0.00000    |
 |   153    0.66667   0.13333   0.00000   |    0.80213   0.16043   0.00000    |
 |   154    0.66667   0.20000   0.00000   |    0.80213   0.24064   0.00000    |
 |   155    0.66667   0.26667   0.00000   |    0.80213   0.32085   0.00000    |
 |   156    0.66667   0.33333   0.00000   |    0.80213   0.40107   0.00000    |
 |   157    0.66667   0.40000   0.00000   |    0.80213   0.48128   0.00000    |
 |   158    0.66667   0.46667   0.00000   |    0.80213   0.56149   0.00000    |
 |   159    0.66667   0.53333   0.00000   |    0.80213   0.64170   0.00000    |
 |   160    0.66667   0.60000   0.00000   |    0.80213   0.72192   0.00000    |
 |   161    0.66667   0.66667   0.00000   |    0.80213   0.80213   0.00000    |
 |   162    0.66667   0.73333   0.00000   |    0.80213   0.88234   0.00000    |
 |   163    0.66667   0.80000   0.00000   |    0.80213   0.96256   0.00000    |
 |   164    0.66667   0.86667   0.00000   |    0.80213   1.04277   0.00000    |
 |   165    0.66667   0.93333   0.00000   |    0.80213   1.12298   0.00000    |
 |   166    0.73333   0.00000   0.00000   |    0.88234   0.00000   0.00000    |
 |   167    0.73333   0.06667   0.00000   |    0.88234   0.08021   0.00000    |
 |   168    0.73333   0.13333   0.00000   |    0.88234   0.16043   0.00000    |
 |   169    0.73333   0.20000   0.00000   |    0.88234   0.24064   0.00000    |
 |   170    0.73333   0.26667   0.00000   |    0.88234   0.32085   0.00000    |
 |   171    0.73333   0.33333   0.00000   |    0.88234   0.40107   0.00000    |
 |   172    0.73333   0.40000   0.00000   |    0.88234   0.48128   0.00000    |
 |   173    0.73333   0.46667   0.00000   |    0.88234   0.56149   0.00000    |
 |   174    0.73333   0.53333   0.00000   |    0.88234   0.64170   0.00000    |
 |   175    0.73333   0.60000   0.00000   |    0.88234   0.72192   0.00000    |
 |   176    0.73333   0.66667   0.00000   |    0.88234   0.80213   0.00000    |
 |   177    0.73333   0.73333   0.00000   |    0.88234   0.88234   0.00000    |
 |   178    0.73333   0.80000   0.00000   |    0.88234   0.96256   0.00000    |
 |   179    0.73333   0.86667   0.00000   |    0.88234   1.04277   0.00000    |
 |   180    0.73333   0.93333   0.00000   |    0.88234   1.12298   0.00000    |
 |   181    0.80000   0.00000   0.00000   |    0.96256   0.00000   0.00000    |
 |   182    0.80000   0.06667   0.00000   |    0.96256   0.08021   0.00000    |
 |   183    0.80000   0.13333   0.00000   |    0.96256   0.16043   0.00000    |
 |   184    0.80000   0.20000   0.00000   |    0.96256   0.24064   0.00000    |
 |   185    0.80000   0.26667   0.00000   |    0.96256   0.32085   0.00000    |
 |   186    0.80000   0.33333   0.00000   |    0.96256   0.40107   0.00000    |
 |   187    0.80000   0.40000   0.00000   |    0.96256   0.48128   0.00000    |
 |   188    0.80000   0.46667   0.00000   |    0.96256   0.56149   0.00000    |
 |   189    0.80000   0.53333   0.00000   |    0.96256   0.64170   0.00000    |
 |   190    0.80000   0.60000   0.00000   |    0.96256   0.72192   0.00000    |
 |   191    0.80000   0.66667   0.00000   |    0.96256   0.80213   0.00000    |
 |   192    0.80000   0.73333   0.00000   |    0.96256   0.88234   0.00000    |
 |   193    0.80000   0.80000   0.00000   |    0.96256   0.96256   0.00000    |
 |   194    0.80000   0.86667   0.00000   |    0.96256   1.04277   0.00000    |
 |   195    0.80000   0.93333   0.00000   |    0.96256   1.12298   0.00000    |
 |   196    0.86667   0.00000   0.00000   |    1.04277   0.00000   0.00000    |
 |   197    0.86667   0.06667   0.00000   |    1.04277   0.08021   0.00000    |
 |   198    0.86667   0.13333   0.00000   |    1.04277   0.16043   0.00000    |
 |   199    0.86667   0.20000   0.00000   |    1.04277   0.24064   0.00000    |
 |   200    0.86667   0.26667   0.00000   |    1.04277   0.32085   0.00000    |
 |   201    0.86667   0.33333   0.00000   |    1.04277   0.40107   0.00000    |
 |   202    0.86667   0.40000   0.00000   |    1.04277   0.48128   0.00000    |
 |   203    0.86667   0.46667   0.00000   |    1.04277   0.56149   0.00000    |
 |   204    0.86667   0.53333   0.00000   |    1.04277   0.64170   0.00000    |
 |   205    0.86667   0.60000   0.00000   |    1.04277   0.72192   0.00000    |
 |   206    0.86667   0.66667   0.00000   |    1.04277   0.80213   0.00000    |
 |   207    0.86667   0.73333   0.00000   |    1.04277   0.88234   0.00000    |
 |   208    0.86667   0.80000   0.00000   |    1.04277   0.96256   0.00000    |
 |   209    0.86667   0.86667   0.00000   |    1.04277   1.04277   0.00000    |
 |   210    0.86667   0.93333   0.00000   |    1.04277   1.12298   0.00000    |
 |   211    0.93333   0.00000   0.00000   |    1.12298   0.00000   0.00000    |
 |   212    0.93333   0.06667   0.00000   |    1.12298   0.08021   0.00000    |
 |   213    0.93333   0.13333   0.00000   |    1.12298   0.16043   0.00000    |
 |   214    0.93333   0.20000   0.00000   |    1.12298   0.24064   0.00000    |
 |   215    0.93333   0.26667   0.00000   |    1.12298   0.32085   0.00000    |
 |   216    0.93333   0.33333   0.00000   |    1.12298   0.40107   0.00000    |
 |   217    0.93333   0.40000   0.00000   |    1.12298   0.48128   0.00000    |
 |   218    0.93333   0.46667   0.00000   |    1.12298   0.56149   0.00000    |
 |   219    0.93333   0.53333   0.00000   |    1.12298   0.64170   0.00000    |
 |   220    0.93333   0.60000   0.00000   |    1.12298   0.72192   0.00000    |
 |   221    0.93333   0.66667   0.00000   |    1.12298   0.80213   0.00000    |
 |   222    0.93333   0.73333   0.00000   |    1.12298   0.88234   0.00000    |
 |   223    0.93333   0.80000   0.00000   |    1.12298   0.96256   0.00000    |
 |   224    0.93333   0.86667   0.00000   |    1.12298   1.04277   0.00000    |
 |   225    0.93333   0.93333   0.00000   |    1.12298   1.12298   0.00000    |
 *----------------------------------------------------------------------------*
  
  
 *---------------------------------- MAIN ------------------------------------*
 |  Number of Wannier Functions               :                48             |
 |  Number of input Bloch states              :                96             |
 |  Output verbosity (1=low, 5=high)          :                 5             |
 |  Timing Level (1=low, 5=high)              :                 1             |
 |  Optimisation (0=memory, 3=speed)          :                 3             |
 |  Length Unit                               :               Ang             |
 |  Post-processing setup (write *.nnkp)      :                 F             |
 |  Using Gamma-only branch of algorithms     :                 F             |
 |  CP code post-processing                   :                 F             |
 |  Wavefunction (UNK) file-type              :       unformatted             |
 |  Wavefunction spin channel                 :                up             |
 *----------------------------------------------------------------------------*
 *------------------------------- WANNIERISE ---------------------------------*
 |  Total number of iterations                :                 0             |
 |  Number of CG steps before reset           :                 5             |
 |  Trial step length for line search         :             2.000             |
 |  Convergence tolerence                     :         0.100E-09             |
 |  Convergence window                        :                -1             |
 |  Iterations between writing output         :                10             |
 |  Iterations between backing up to disk     :               100             |
 |  Write r^2_nm to file                      :                 F             |
 |  Write xyz WF centres to file              :                 T             |
 |  Write on-site energies <0n|H|0n> to file  :                 T             |
 |  Use guiding centre to control phases      :                 T             |
 |  Use phases for initial projections        :                 F             |
 |  Iterations before starting guiding centres:                 0             |
 |  Iterations between using guiding centres  :                 1             |
 *----------------------------------------------------------------------------*
 *------------------------------- DISENTANGLE --------------------------------*
 |  Using band disentanglement                :                 T             |
 |  Total number of iterations                :            100000             |
 |  Mixing ratio                              :             0.500             |
 |  Convergence tolerence                     :         1.000E-07             |
 |  Convergence window                        :                10             |
 *----------------------------------------------------------------------------*
 *-------------------------------- PLOTTING ----------------------------------*
 |  Plotting Wannier functions                :                 T             |
 |   Size of supercell for plotting           :     1x    1x    1             |
 |   Plotting mode (molecule or crystal)      :           crystal             |
 |   Plotting format                          :          xcrysden             |
 |   Plot radius                              :             3.500             |
 *----------------------------------------------------------------------------*
 |  Plotting Fermi surface                    :                 T             |
 |   Number of plotting points (along b_1)    :                50             |
 |   Plotting format                          :          xcrysden             |
 *----------------------------------------------------------------------------*
 |  Plotting interpolated bandstructure       :                 T             |
 |   Number of K-path sections                :                 9             |
 |   Divisions along first K-path section     :                50             |
 |   Output format                            :           gnuplot             |
 |   Output mode                              :               s-k             |
 *----------------------------------------------------------------------------*
 |   K-space path sections:                                                   |
 |    From:  G    0.000  0.000  0.000     To:  X    0.000  0.500  0.000       |
 |    From:  X    0.000  0.500  0.000     To:  M    0.500  0.500  0.000       |
 |    From:  M    0.500  0.500  0.000     To:  G    0.000  0.000  0.000       |
 |    From:  G    0.000  0.000  0.000     To:  Z    0.000  0.000  0.500       |
 |    From:  Z    0.000  0.000  0.500     To:  R    0.000  0.500  0.500       |
 |    From:  R    0.000  0.500  0.500     To:  A    0.500  0.500  0.500       |
 |    From:  A    0.500  0.500  0.500     To:  Z    0.000  0.000  0.500       |
 |    From:  Z    0.000  0.000  0.500     To:  X    0.000  0.500  0.000       |
 |    From:  X    0.000  0.500  0.000     To:  R    0.000  0.500  0.500       |
 *----------------------------------------------------------------------------*
 |  Plotting Hamiltonian in WF basis          :                 T             |
 *----------------------------------------------------------------------------*
 |  Writing data for Van der Waals post-proc  :                 F             |
 *----------------------------------------------------------------------------*
 *------------------------------- TRANSPORT ----------------------------------*
 |  Transport mode                            :              bulk             |
 |   Hamiltonian from external files          :                 F             |
 |   System extended in                       :              none             |
 |   Centre of the unit cell to which WF are translated (fract. coords):      |
 |                                       0.000000,    0.000000,    0.000000   |
 |  Fermi energy (eV)                         :             0.000             |
 *----------------------------------------------------------------------------*
 Time to read parameters        0.040 (sec)

 *---------------------------------- K-MESH ----------------------------------*
 +----------------------------------------------------------------------------+
 |                    Distance to Nearest-Neighbour Shells                    |
 |                    ------------------------------------                    |
 |          Shell             Distance (Ang^-1)          Multiplicity         |
 |          -----             -----------------          ------------         |
 |             1                   0.080213                      4            |
 |             2                   0.113438                      4            |
 |             3                   0.160426                      4            |
 |             4                   0.179362                      8            |
 |             5                   0.209440                      2            |
 |             6                   0.224274                      8            |
 |             7                   0.226877                      4            |
 |             8                   0.238187                      8            |
 |             9                   0.240639                      4            |
 |            10                   0.253656                      8            |
 |            11                   0.263821                      8            |
 |            12                   0.275745                     16            |
 +----------------------------------------------------------------------------+
 |                                                                            |
 |         Complete list of b-vectors and their lengths                       |
 |                                                                            |
 +----------------------------------------------------------------------------+
 | b-vector     1 : (      0.000000    0.080213    0.000000  )      0.080213  |
 | b-vector     2 : (      0.080213    0.000000    0.000000  )      0.080213  |
 | b-vector     3 : (      0.000000   -0.080213    0.000000  )      0.080213  |
 | b-vector     4 : (     -0.080213    0.000000    0.000000  )      0.080213  |
 | b-vector     5 : (      0.080213    0.080213    0.000000  )      0.113438  |
 | b-vector     6 : (      0.080213   -0.080213    0.000000  )      0.113438  |
 | b-vector     7 : (     -0.080213    0.080213    0.000000  )      0.113438  |
 | b-vector     8 : (     -0.080213   -0.080213    0.000000  )      0.113438  |
 | b-vector     9 : (      0.000000    0.160426    0.000000  )      0.160426  |
 | b-vector    10 : (      0.160426    0.000000    0.000000  )      0.160426  |
 | b-vector    11 : (      0.000000   -0.160426    0.000000  )      0.160426  |
 | b-vector    12 : (     -0.160426    0.000000    0.000000  )      0.160426  |
 | b-vector    13 : (      0.080213    0.160426    0.000000  )      0.179362  |
 | b-vector    14 : (      0.160426    0.080213    0.000000  )      0.179362  |
 | b-vector    15 : (      0.080213   -0.160426    0.000000  )      0.179362  |
 | b-vector    16 : (      0.160426   -0.080213    0.000000  )      0.179362  |
 | b-vector    17 : (     -0.160426    0.080213    0.000000  )      0.179362  |
 | b-vector    18 : (     -0.080213    0.160426    0.000000  )      0.179362  |
 | b-vector    19 : (     -0.160426   -0.080213    0.000000  )      0.179362  |
 | b-vector    20 : (     -0.080213   -0.160426    0.000000  )      0.179362  |
 | b-vector    21 : (      0.000000    0.000000    0.209440  )      0.209440  |
 | b-vector    22 : (      0.000000    0.000000   -0.209440  )      0.209440  |
 | b-vector    23 : (      0.000000    0.080213    0.209440  )      0.224274  |
 | b-vector    24 : (      0.080213    0.000000    0.209440  )      0.224274  |
 | b-vector    25 : (      0.000000    0.080213   -0.209440  )      0.224274  |
 | b-vector    26 : (      0.080213    0.000000   -0.209440  )      0.224274  |
 | b-vector    27 : (      0.000000   -0.080213    0.209440  )      0.224274  |
 | b-vector    28 : (      0.000000   -0.080213   -0.209440  )      0.224274  |
 | b-vector    29 : (     -0.080213    0.000000    0.209440  )      0.224274  |
 | b-vector    30 : (     -0.080213    0.000000   -0.209440  )      0.224274  |
 | b-vector    31 : (      0.160426    0.160426    0.000000  )      0.226877  |
 | b-vector    32 : (      0.160426   -0.160426    0.000000  )      0.226877  |
 | b-vector    33 : (     -0.160426    0.160426    0.000000  )      0.226877  |
 | b-vector    34 : (     -0.160426   -0.160426    0.000000  )      0.226877  |
 | b-vector    35 : (      0.080213    0.080213    0.209440  )      0.238187  |
 | b-vector    36 : (      0.080213    0.080213   -0.209440  )      0.238187  |
 | b-vector    37 : (      0.080213   -0.080213    0.209440  )      0.238187  |
 | b-vector    38 : (      0.080213   -0.080213   -0.209440  )      0.238187  |
 | b-vector    39 : (     -0.080213    0.080213    0.209440  )      0.238187  |
 | b-vector    40 : (     -0.080213    0.080213   -0.209440  )      0.238187  |
 | b-vector    41 : (     -0.080213   -0.080213    0.209440  )      0.238187  |
 | b-vector    42 : (     -0.080213   -0.080213   -0.209440  )      0.238187  |
 | b-vector    43 : (      0.000000    0.240639    0.000000  )      0.240639  |
 | b-vector    44 : (      0.240639    0.000000    0.000000  )      0.240639  |
 | b-vector    45 : (      0.000000   -0.240639    0.000000  )      0.240639  |
 | b-vector    46 : (     -0.240639    0.000000    0.000000  )      0.240639  |
 | b-vector    47 : (      0.080213    0.240639    0.000000  )      0.253656  |
 | b-vector    48 : (      0.240639    0.080213    0.000000  )      0.253656  |
 | b-vector    49 : (      0.080213   -0.240639    0.000000  )      0.253656  |
 | b-vector    50 : (      0.240639   -0.080213    0.000000  )      0.253656  |
 | b-vector    51 : (     -0.240639    0.080213    0.000000  )      0.253656  |
 | b-vector    52 : (     -0.080213    0.240639    0.000000  )      0.253656  |
 | b-vector    53 : (     -0.240639   -0.080213    0.000000  )      0.253656  |
 | b-vector    54 : (     -0.080213   -0.240639    0.000000  )      0.253656  |
 | b-vector    55 : (      0.000000    0.160426    0.209440  )      0.263821  |
 | b-vector    56 : (      0.160426    0.000000    0.209440  )      0.263821  |
 | b-vector    57 : (      0.000000    0.160426   -0.209440  )      0.263821  |
 | b-vector    58 : (      0.160426    0.000000   -0.209440  )      0.263821  |
 | b-vector    59 : (      0.000000   -0.160426    0.209440  )      0.263821  |
 | b-vector    60 : (      0.000000   -0.160426   -0.209440  )      0.263821  |
 | b-vector    61 : (     -0.160426    0.000000    0.209440  )      0.263821  |
 | b-vector    62 : (     -0.160426    0.000000   -0.209440  )      0.263821  |
 | b-vector    63 : (      0.080213    0.160426    0.209440  )      0.275745  |
 | b-vector    64 : (      0.160426    0.080213    0.209440  )      0.275745  |
 | b-vector    65 : (      0.080213    0.160426   -0.209440  )      0.275745  |
 | b-vector    66 : (      0.160426    0.080213   -0.209440  )      0.275745  |
 | b-vector    67 : (      0.080213   -0.160426    0.209440  )      0.275745  |
 | b-vector    68 : (      0.160426   -0.080213    0.209440  )      0.275745  |
 | b-vector    69 : (      0.080213   -0.160426   -0.209440  )      0.275745  |
 | b-vector    70 : (      0.160426   -0.080213   -0.209440  )      0.275745  |
 | b-vector    71 : (     -0.160426    0.080213    0.209440  )      0.275745  |
 | b-vector    72 : (     -0.080213    0.160426    0.209440  )      0.275745  |
 | b-vector    73 : (     -0.160426    0.080213   -0.209440  )      0.275745  |
 | b-vector    74 : (     -0.080213    0.160426   -0.209440  )      0.275745  |
 | b-vector    75 : (     -0.160426   -0.080213    0.209440  )      0.275745  |
 | b-vector    76 : (     -0.080213   -0.160426    0.209440  )      0.275745  |
 | b-vector    77 : (     -0.160426   -0.080213   -0.209440  )      0.275745  |
 | b-vector    78 : (     -0.080213   -0.160426   -0.209440  )      0.275745  |
 |                                                                            |
 +----------------------------------------------------------------------------+
 | The b-vectors are chosen automatically                                     |
 | Shell:  1 Multiplicity:  4                                                 |
 | b-vector 1 :        0.000000    0.080213    0.000000      (Ang^-1)         |
 | b-vector 2 :        0.080213    0.000000    0.000000      (Ang^-1)         |
 | b-vector 3 :        0.000000   -0.080213    0.000000      (Ang^-1)         |
 | b-vector 4 :       -0.080213    0.000000    0.000000      (Ang^-1)         |
 | Shell:  1 w_b   77.7105213      (Ang^2)                                    |
 | B1 condition is not satisfied: Adding another shell                        |
 | Shell:  2 Multiplicity:  4                                                 |
 | b-vector 1 :        0.080213    0.080213    0.000000      (Ang^-1)         |
 | b-vector 2 :        0.080213   -0.080213    0.000000      (Ang^-1)         |
 | b-vector 3 :       -0.080213    0.080213    0.000000      (Ang^-1)         |
 | b-vector 4 :       -0.080213   -0.080213    0.000000      (Ang^-1)         |
 | SVD found small singular value, Rejecting this shell and trying the next   |
 | Shell:  3 Multiplicity:  4                                                 |
 | b-vector 1 :        0.000000    0.160426    0.000000      (Ang^-1)         |
 | b-vector 2 :        0.160426    0.000000    0.000000      (Ang^-1)         |
 | b-vector 3 :        0.000000   -0.160426    0.000000      (Ang^-1)         |
 | b-vector 4 :       -0.160426    0.000000    0.000000      (Ang^-1)         |
 | This shell is linearly dependent on existing shells: Trying next shell     |
 | Shell:  4 Multiplicity:  8                                                 |
 | b-vector 1 :        0.080213    0.160426    0.000000      (Ang^-1)         |
 | b-vector 2 :        0.160426    0.080213    0.000000      (Ang^-1)         |
 | b-vector 3 :        0.080213   -0.160426    0.000000      (Ang^-1)         |
 | b-vector 4 :        0.160426   -0.080213    0.000000      (Ang^-1)         |
 | b-vector 5 :       -0.160426    0.080213    0.000000      (Ang^-1)         |
 | b-vector 6 :       -0.080213    0.160426    0.000000      (Ang^-1)         |
 | b-vector 7 :       -0.160426   -0.080213    0.000000      (Ang^-1)         |
 | b-vector 8 :       -0.080213   -0.160426    0.000000      (Ang^-1)         |
 | SVD found small singular value, Rejecting this shell and trying the next   |
 | Shell:  5 Multiplicity:  2                                                 |
 | b-vector 1 :        0.000000    0.000000    0.209440      (Ang^-1)         |
 | b-vector 2 :        0.000000    0.000000   -0.209440      (Ang^-1)         |
 | Shell:  1 w_b   77.7105213      (Ang^2)                                    |
 | Shell:  2 w_b   11.3986332      (Ang^2)                                    |
 | The following shells are used:   1,  5                                     |
 +----------------------------------------------------------------------------+
 |                        Shell   # Nearest-Neighbours                        |
 |                        -----   --------------------                        |
 |                          1               4                                 |
 |                          5               2                                 |
 +----------------------------------------------------------------------------+
 | Completeness relation is fully satisfied [Eq. (B1), PRB 56, 12847 (1997)]  |
 +----------------------------------------------------------------------------+
 |                  b_k Vectors (Ang^-1) and Weights (Ang^2)                  |
 |                  ----------------------------------------                  |
 |            No.         b_k(x)      b_k(y)      b_k(z)        w_b           |
 |            ---        --------------------------------     --------        |
 |             1         0.000000    0.080213    0.000000    77.710521        |
 |             2         0.080213    0.000000    0.000000    77.710521        |
 |             3         0.000000   -0.080213    0.000000    77.710521        |
 |             4        -0.080213    0.000000    0.000000    77.710521        |
 |             5         0.000000    0.000000    0.209440    11.398633        |
 |             6         0.000000    0.000000   -0.209440    11.398633        |
 +----------------------------------------------------------------------------+
 |                           b_k Directions (Ang^-1)                          |
 |                           -----------------------                          |
 |            No.           x           y           z                         |
 |            ---        --------------------------------                     |
 |             1         0.000000    0.080213    0.000000                     |
 |             2         0.080213    0.000000    0.000000                     |
 |             3         0.000000    0.000000    0.209440                     |
 +----------------------------------------------------------------------------+
  
 *============================================================================*
 |                              MEMORY ESTIMATE                               |
 |         Maximum RAM allocated during each phase of the calculation         |
 *============================================================================*
 |                        Disentanglement          293.69 Mb                  |
 |                            Wannierise:          145.30 Mb                  |
 |                                                                            |
 |   N.B. by setting optimisation=0 memory usage will be reduced to:          |
 |                        Disentanglement          293.69 Mb                  |
 |                            Wannierise:           97.84 Mb                  |
 |   However, this will result in more i/o and slow down the calculation      |
 |                          plot_wannier:          145.30 Mb                  |
 *----------------------------------------------------------------------------*
  
 Starting a new Wannier90 calculation ...

 Time to get kmesh              0.080 (sec)

 Reading overlaps from BiPentaSi.mmn    :  Created on 21Mar2018 at 11: 8: 7

 Reading projections from BiPentaSi.amn :  Created on 21Mar2018 at 11: 2:48

 Time to read overlaps         10.472 (sec)

 *------------------------------- DISENTANGLE --------------------------------*
 +----------------------------------------------------------------------------+
 |                              Energy  Windows                               |
 |                              ---------------                               |
 |                   Outer:  -15.00000  to   12.00000  (eV)                   |
 |                   Inner:  -14.00000  to    4.20000  (eV)                   |
 +----------------------------------------------------------------------------+
 |                        K-points with Frozen States                         |
 |                        ---------------------------                         |
 |     1     2     3     4     5     6     7     8     9    10    11    12    |
 |    13    14    15    16    17    18    19    20    21    22    23    24    |
 |    25    26    27    28    29    30    31    32    33    34    35    36    |
 |    37    38    39    40    41    42    43    44    45    46    47    48    |
 |    49    50    51    52    53    54    55    56    57    58    59    60    |
 |    61    62    63    64    65    66    67    68    69    70    71    72    |
 |    73    74    75    76    77    78    79    80    81    82    83    84    |
 |    85    86    87    88    89    90    91    92    93    94    95    96    |
 |    97    98    99   100   101   102   103   104   105   106   107   108    |
 |   109   110   111   112   113   114   115   116   117   118   119   120    |
 |   121   122   123   124   125   126   127   128   129   130   131   132    |
 |   133   134   135   136   137   138   139   140   141   142   143   144    |
 |   145   146   147   148   149   150   151   152   153   154   155   156    |
 |   157   158   159   160   161   162   163   164   165   166   167   168    |
 |   169   170   171   172   173   174   175   176   177   178   179   180    |
 |   181   182   183   184   185   186   187   188   189   190   191   192    |
 |   193   194   195   196   197   198   199   200   201   202   203   204    |
 |   205   206   207   208   209   210   211   212   213   214   215   216    |
 |   217   218   219   220   221   222   223   224   225                      |
 +----------------------------------------------------------------------------+
   Number of target bands to extract:   48
 +----------------------------------------------------------------------------+
 |                                  Windows                                   |
 |                                  -------                                   |
 |               K-point      Ndimwin     Ndimfroz    Nfirstwin               |
 |               ----------------------------------------------               |
 |                   1           96           46           1                  |
 |                   2           96           46           1                  |
 |                   3           96           46           1                  |
 |                   4           96           46           1                  |
 |                   5           96           45           1                  |
 |                   6           96           45           1                  |
 |                   7           96           44           1                  |
 |                   8           96           44           1                  |
 |                   9           96           44           1                  |
 |                  10           96           44           1                  |
 |                  11           96           45           1                  |
 |                  12           96           45           1                  |
 |                  13           96           46           1                  |
 |                  14           96           46           1                  |
 |                  15           96           46           1                  |
 |                  16           96           46           1                  |
 |                  17           96           46           1                  |
 |                  18           96           46           1                  |
 |                  19           96           46           1                  |
 |                  20           96           45           1                  |
 |                  21           96           45           1                  |
 |                  22           96           43           1                  |
 |                  23           96           44           1                  |
 |                  24           96           44           1                  |
 |                  25           96           44           1                  |
 |                  26           96           44           1                  |
 |                  27           96           44           1                  |
 |                  28           96           45           1                  |
 |                  29           96           46           1                  |
 |                  30           96           46           1                  |
 |                  31           96           46           1                  |
 |                  32           96           46           1                  |
 |                  33           96           46           1                  |
 |                  34           96           46           1                  |
 |                  35           96           45           1                  |
 |                  36           96           44           1                  |
 |                  37           96           45           1                  |
 |                  38           96           44           1                  |
 |                  39           96           44           1                  |
 |                  40           96           44           1                  |
 |                  41           96           44           1                  |
 |                  42           96           44           1                  |
 |                  43           96           44           1                  |
 |                  44           96           46           1                  |
 |                  45           96           46           1                  |
 |                  46           96           46           1                  |
 |                  47           96           46           1                  |
 |                  48           96           46           1                  |
 |                  49           96           45           1                  |
 |                  50           96           45           1                  |
 |                  51           96           44           1                  |
 |                  52           96           45           1                  |
 |                  53           96           44           1                  |
 |                  54           96           45           1                  |
 |                  55           96           44           1                  |
 |                  56           96           44           1                  |
 |                  57           96           45           1                  |
 |                  58           96           44           1                  |
 |                  59           96           44           1                  |
 |                  60           96           45           1                  |
 |                  61           96           45           1                  |
 |                  62           96           45           1                  |
 |                  63           96           45           1                  |
 |                  64           96           45           1                  |
 |                  65           96           45           1                  |
 |                  66           96           45           1                  |
 |                  67           96           45           1                  |
 |                  68           96           45           1                  |
 |                  69           96           45           1                  |
 |                  70           96           45           1                  |
 |                  71           96           45           1                  |
 |                  72           96           45           1                  |
 |                  73           96           45           1                  |
 |                  74           96           44           1                  |
 |                  75           96           44           1                  |
 |                  76           96           45           1                  |
 |                  77           96           45           1                  |
 |                  78           96           44           1                  |
 |                  79           96           44           1                  |
 |                  80           96           45           1                  |
 |                  81           96           46           1                  |
 |                  82           96           46           1                  |
 |                  83           96           45           1                  |
 |                  84           96           46           1                  |
 |                  85           96           46           1                  |
 |                  86           96           46           1                  |
 |                  87           96           45           1                  |
 |                  88           96           44           1                  |
 |                  89           96           44           1                  |
 |                  90           96           44           1                  |
 |                  91           96           44           1                  |
 |                  92           96           43           1                  |
 |                  93           96           45           1                  |
 |                  94           96           45           1                  |
 |                  95           96           45           1                  |
 |                  96           96           46           1                  |
 |                  97           96           45           1                  |
 |                  98           96           45           1                  |
 |                  99           96           45           1                  |
 |                 100           96           45           1                  |
 |                 101           96           46           1                  |
 |                 102           96           45           1                  |
 |                 103           96           44           1                  |
 |                 104           96           44           1                  |
 |                 105           96           44           1                  |
 |                 106           96           44           1                  |
 |                 107           96           44           1                  |
 |                 108           96           44           1                  |
 |                 109           96           44           1                  |
 |                 110           96           45           1                  |
 |                 111           96           45           1                  |
 |                 112           96           45           1                  |
 |                 113           96           45           1                  |
 |                 114           96           45           1                  |
 |                 115           96           45           1                  |
 |                 116           96           46           1                  |
 |                 117           96           45           1                  |
 |                 118           96           45           1                  |
 |                 119           96           44           1                  |
 |                 120           96           44           1                  |
 |                 121           96           44           1                  |
 |                 122           96           44           1                  |
 |                 123           96           44           1                  |
 |                 124           96           45           1                  |
 |                 125           96           45           1                  |
 |                 126           96           46           1                  |
 |                 127           96           45           1                  |
 |                 128           96           45           1                  |
 |                 129           96           45           1                  |
 |                 130           96           45           1                  |
 |                 131           96           45           1                  |
 |                 132           96           45           1                  |
 |                 133           96           44           1                  |
 |                 134           96           44           1                  |
 |                 135           96           44           1                  |
 |                 136           96           44           1                  |
 |                 137           96           44           1                  |
 |                 138           96           44           1                  |
 |                 139           96           44           1                  |
 |                 140           96           45           1                  |
 |                 141           96           46           1                  |
 |                 142           96           45           1                  |
 |                 143           96           45           1                  |
 |                 144           96           45           1                  |
 |                 145           96           45           1                  |
 |                 146           96           46           1                  |
 |                 147           96           45           1                  |
 |                 148           96           45           1                  |
 |                 149           96           45           1                  |
 |                 150           96           43           1                  |
 |                 151           96           45           1                  |
 |                 152           96           44           1                  |
 |                 153           96           44           1                  |
 |                 154           96           44           1                  |
 |                 155           96           45           1                  |
 |                 156           96           46           1                  |
 |                 157           96           46           1                  |
 |                 158           96           46           1                  |
 |                 159           96           45           1                  |
 |                 160           96           46           1                  |
 |                 161           96           46           1                  |
 |                 162           96           45           1                  |
 |                 163           96           44           1                  |
 |                 164           96           44           1                  |
 |                 165           96           45           1                  |
 |                 166           96           45           1                  |
 |                 167           96           44           1                  |
 |                 168           96           44           1                  |
 |                 169           96           45           1                  |
 |                 170           96           45           1                  |
 |                 171           96           45           1                  |
 |                 172           96           45           1                  |
 |                 173           96           45           1                  |
 |                 174           96           45           1                  |
 |                 175           96           45           1                  |
 |                 176           96           45           1                  |
 |                 177           96           45           1                  |
 |                 178           96           45           1                  |
 |                 179           96           45           1                  |
 |                 180           96           45           1                  |
 |                 181           96           46           1                  |
 |                 182           96           45           1                  |
 |                 183           96           44           1                  |
 |                 184           96           44           1                  |
 |                 185           96           45           1                  |
 |                 186           96           44           1                  |
 |                 187           96           44           1                  |
 |                 188           96           45           1                  |
 |                 189           96           44           1                  |
 |                 190           96           45           1                  |
 |                 191           96           44           1                  |
 |                 192           96           45           1                  |
 |                 193           96           45           1                  |
 |                 194           96           46           1                  |
 |                 195           96           46           1                  |
 |                 196           96           46           1                  |
 |                 197           96           46           1                  |
 |                 198           96           46           1                  |
 |                 199           96           44           1                  |
 |                 200           96           44           1                  |
 |                 201           96           44           1                  |
 |                 202           96           44           1                  |
 |                 203           96           44           1                  |
 |                 204           96           44           1                  |
 |                 205           96           45           1                  |
 |                 206           96           44           1                  |
 |                 207           96           45           1                  |
 |                 208           96           46           1                  |
 |                 209           96           46           1                  |
 |                 210           96           46           1                  |
 |                 211           96           46           1                  |
 |                 212           96           46           1                  |
 |                 213           96           46           1                  |
 |                 214           96           45           1                  |
 |                 215           96           44           1                  |
 |                 216           96           44           1                  |
 |                 217           96           44           1                  |
 |                 218           96           44           1                  |
 |                 219           96           44           1                  |
 |                 220           96           43           1                  |
 |                 221           96           45           1                  |
 |                 222           96           45           1                  |
 |                 223           96           46           1                  |
 |                 224           96           46           1                  |
 |                 225           96           46           1                  |
 +----------------------------------------------------------------------------+

                   Unitarised projection of Wannier functions                  
                   ------------------------------------------                  
   A_mn = <psi_m|g_n> --> S = A.A^+ --> U = S^-1/2.A
   In dis_project... done
   Using an inner window (linner = T)
   In dis_proj_froz...
 K-point   1 ndimwin:  96 we want the  2 leading eigenvector(s) of QPQ
  lambda(  1)= -0.000000000000
  lambda(  2)=  0.000000000000
  lambda(  3)=  0.000000000000
  lambda(  4)=  0.000000000000
  lambda(  5)=  0.000000000000
  lambda(  6)=  0.000000000000
  lambda(  7)=  0.000000000000
  lambda(  8)=  0.000000000000
  lambda(  9)=  0.000000000000
  lambda( 10)=  0.000000000000
  lambda( 11)=  0.000000000000
  lambda( 12)=  0.000000000000
  lambda( 13)=  0.000000000000
  lambda( 14)=  0.000000000000
  lambda( 15)=  0.000000000000
  lambda( 16)=  0.000000000000
  lambda( 17)=  0.000000000000
  lambda( 18)=  0.000000000000
  lambda( 19)=  0.000000000000
  lambda( 20)=  0.000000000000
  lambda( 21)=  0.000000000000
  lambda( 22)=  0.000000000000
  lambda( 23)=  0.000000000000
  lambda( 24)=  0.000000000000
  lambda( 25)=  0.000000000000
  lambda( 26)=  0.000000000000
  lambda( 27)=  0.000000000000
  lambda( 28)=  0.000000000000
  lambda( 29)=  0.000000000000
  lambda( 30)=  0.000000000000
  lambda( 31)=  0.000000000000
  lambda( 32)=  0.000000000000
  lambda( 33)=  0.000000000000
  lambda( 34)=  0.000000000000
  lambda( 35)=  0.000000000000
  lambda( 36)=  0.000000000000
  lambda( 37)=  0.000000000000
  lambda( 38)=  0.000000000000
  lambda( 39)=  0.000000000000
  lambda( 40)=  0.000000000000
  lambda( 41)=  0.000000000000
  lambda( 42)=  0.000000000000
  lambda( 43)=  0.000000000000
  lambda( 44)=  0.000000000000
  lambda( 45)=  0.000000000000
  lambda( 46)=  0.000000000000
  lambda( 47)=  0.000000000000
  lambda( 48)=  0.000000000000
  lambda( 49)=  0.000000008955
  lambda( 50)=  0.000000016342
  lambda( 51)=  0.000000128582
  lambda( 52)=  0.000000313060
  lambda( 53)=  0.000000888393
  lambda( 54)=  0.000002053481
  lambda( 55)=  0.000004095850
  lambda( 56)=  0.000005869807
  lambda( 57)=  0.000007258464
  lambda( 58)=  0.000065671768
  lambda( 59)=  0.000126872208
  lambda( 60)=  0.000156012450
  lambda( 61)=  0.000213056980
  lambda( 62)=  0.000285572297
  lambda( 63)=  0.000884894457
  lambda( 64)=  0.001676988041
  lambda( 65)=  0.002035018958
  lambda( 66)=  0.002341207264
  lambda( 67)=  0.004276007053
  lambda( 68)=  0.004461044367
  lambda( 69)=  0.004596069255
  lambda( 70)=  0.010697252298
  lambda( 71)=  0.013060242582
  lambda( 72)=  0.018001854916
  lambda( 73)=  0.024649153087
  lambda( 74)=  0.033700431781
  lambda( 75)=  0.036793908370
  lambda( 76)=  0.039477886720
  lambda( 77)=  0.099369282391
  lambda( 78)=  0.117690131758
  lambda( 79)=  0.141911476866
  lambda( 80)=  0.198348695924
  lambda( 81)=  0.229767435660
  lambda( 82)=  0.231252327887
  lambda( 83)=  0.268354698670
  lambda( 84)=  0.292941797909
  lambda( 85)=  0.299313195013
  lambda( 86)=  0.410481762234
  lambda( 87)=  0.452378307057
  lambda( 88)=  0.454165928573
  lambda( 89)=  0.590868995597
  lambda( 90)=  0.670697581497
  lambda( 91)=  0.918654148363
  lambda( 92)=  0.999999493127
  lambda( 93)=  0.999999991236
  lambda( 94)=  0.999999999988
  lambda( 95)=  1.000000000000
  lambda( 96)=  1.000000000000

 K-point   2 ndimwin:  96 we want the  2 leading eigenvector(s) of QPQ
  lambda(  1)= -0.000000000000
  lambda(  2)=  0.000000000000
  lambda(  3)=  0.000000000000
  lambda(  4)=  0.000000000000
  lambda(  5)=  0.000000000000
  lambda(  6)=  0.000000000000
  lambda(  7)=  0.000000000000
  lambda(  8)=  0.000000000000
  lambda(  9)=  0.000000000000
  lambda( 10)=  0.000000000000
  lambda( 11)=  0.000000000000
  lambda( 12)=  0.000000000000
  lambda( 13)=  0.000000000000
  lambda( 14)=  0.000000000000
  lambda( 15)=  0.000000000000
  lambda( 16)=  0.000000000000
  lambda( 17)=  0.000000000000
  lambda( 18)=  0.000000000000
  lambda( 19)=  0.000000000000
  lambda( 20)=  0.000000000000
  lambda( 21)=  0.000000000000
  lambda( 22)=  0.000000000000
  lambda( 23)=  0.000000000000
  lambda( 24)=  0.000000000000
  lambda( 25)=  0.000000000000
  lambda( 26)=  0.000000000000
  lambda( 27)=  0.000000000000
  lambda( 28)=  0.000000000000
  lambda( 29)=  0.000000000000
  lambda( 30)=  0.000000000000
  lambda( 31)=  0.000000000000
  lambda( 32)=  0.000000000000
  lambda( 33)=  0.000000000000
  lambda( 34)=  0.000000000000
  lambda( 35)=  0.000000000000
  lambda( 36)=  0.000000000000
  lambda( 37)=  0.000000000000
  lambda( 38)=  0.000000000000
  lambda( 39)=  0.000000000000
  lambda( 40)=  0.000000000000
  lambda( 41)=  0.000000000000
  lambda( 42)=  0.000000000000
  lambda( 43)=  0.000000000000
  lambda( 44)=  0.000000000000
  lambda( 45)=  0.000000000000
  lambda( 46)=  0.000000000000
  lambda( 47)=  0.000000000000
  lambda( 48)=  0.000000000000
  lambda( 49)=  0.000000006372
  lambda( 50)=  0.000000091463
  lambda( 51)=  0.000000168698
  lambda( 52)=  0.000000277150
  lambda( 53)=  0.000003930507
  lambda( 54)=  0.000004531466
  lambda( 55)=  0.000007858494
  lambda( 56)=  0.000020237512
  lambda( 57)=  0.000046827697
  lambda( 58)=  0.000073417669
  lambda( 59)=  0.000150350812
  lambda( 60)=  0.000187574003
  lambda( 61)=  0.000282752645
  lambda( 62)=  0.000341712501
  lambda( 63)=  0.000945492479
  lambda( 64)=  0.001355375606
  lambda( 65)=  0.001414857258
  lambda( 66)=  0.002405588272
  lambda( 67)=  0.002543512418
  lambda( 68)=  0.005279685827
  lambda( 69)=  0.008334953430
  lambda( 70)=  0.010844199453
  lambda( 71)=  0.016308385902
  lambda( 72)=  0.019575961901
  lambda( 73)=  0.028769808236
  lambda( 74)=  0.032865420590
  lambda( 75)=  0.047889870833
  lambda( 76)=  0.053438635293
  lambda( 77)=  0.102813550859
  lambda( 78)=  0.129484673710
  lambda( 79)=  0.135304463202
  lambda( 80)=  0.160591770813
  lambda( 81)=  0.188811725868
  lambda( 82)=  0.248598763001
  lambda( 83)=  0.256444985056
  lambda( 84)=  0.286123658025
  lambda( 85)=  0.344032480980
  lambda( 86)=  0.407325929953
  lambda( 87)=  0.427783390844
  lambda( 88)=  0.507226501593
  lambda( 89)=  0.654737213330
  lambda( 90)=  0.684893002415
  lambda( 91)=  0.928801259682
  lambda( 92)=  0.999865693465
  lambda( 93)=  0.999915027534
  lambda( 94)=  0.999999641466
  lambda( 95)=  1.000000000000
  lambda( 96)=  1.000000000000

 K-point   3 ndimwin:  96 we want the  2 leading eigenvector(s) of QPQ
  lambda(  1)= -0.000000000000
  lambda(  2)=  0.000000000000
  lambda(  3)=  0.000000000000
  lambda(  4)=  0.000000000000
  lambda(  5)=  0.000000000000
  lambda(  6)=  0.000000000000
  lambda(  7)=  0.000000000000
  lambda(  8)=  0.000000000000
  lambda(  9)=  0.000000000000
  lambda( 10)=  0.000000000000
  lambda( 11)=  0.000000000000
  lambda( 12)=  0.000000000000
  lambda( 13)=  0.000000000000
  lambda( 14)=  0.000000000000
  lambda( 15)=  0.000000000000
  lambda( 16)=  0.000000000000
  lambda( 17)=  0.000000000000
[...]
deg: 1 1 1 1 1 1 1 1 1 1 1 1 1 1 1 1 1 1 1 1 1 1 1 1 1 1 1 1 1 1 1 1 1 1 1 1 1 1 1 1 1 1 1 1 1 1 1 1
deg: 1 1 1 1 1 1 1 1 1 1 1 1 1 1 1 1 1 1 1 1 1 1 1 1 1 1 1 1 1 1 1 1 1 1 1 1 1 1 1 1 1 1 1 1 1 1 1 1
deg: 1 1 1 1 1 1 1 1 1 1 1 1 1 1 1 1 1 1 1 1 1 1 1 1 1 1 1 1 1 1 1 1 1 1 1 1 1 1 1 1 1 1 1 1 1 1 1 1
deg: 1 1 1 1 1 1 1 1 1 1 1 1 1 1 1 1 1 1 1 1 1 1 1 1 1 1 1 1 1 1 1 1 1 1 1 1 1 1 1 1 1 1 1 1 1 1 1 1
deg: 1 1 1 1 1 1 1 1 1 1 1 1 1 1 1 1 1 1 1 1 1 1 1 1 1 1 1 1 1 1 1 1 1 1 1 1 1 1 1 1 1 1 1 1 1 1 1 1
deg: 1 1 1 1 1 1 1 1 1 1 1 1 1 1 1 1 1 1 1 1 1 1 1 1 1 1 1 1 1 1 1 1 1 1 1 1 1 1 1 1 1 1 1 1 1 1 1 1
  223
deg: 1 1 1 1 1 1 1 1 1 1 1 1 1 1 1 1 1 1 1 1 1 1 1 1 1 1 1 1 1 1 1 1 1 1 1 1 1 1 1 1 1 1 1 1 1 1 1 1
deg: 1 1 1 1 1 1 1 1 1 1 1 1 1 1 1 1 1 1 1 1 1 1 1 1 1 1 1 1 1 1 1 1 1 1 1 1 1 1 1 1 1 1 1 1 1 1 1 1
deg: 1 1 1 1 1 1 1 1 1 1 1 1 1 1 1 1 1 1 1 1 1 1 1 1 1 1 1 1 1 1 1 1 1 1 1 1 1 1 1 1 1 1 1 1 1 1 1 1
deg: 1 1 1 1 1 1 1 1 1 1 1 1 1 1 1 1 1 1 1 1 1 1 1 1 1 1 1 1 1 1 1 1 1 1 1 1 1 1 1 1 1 1 1 1 1 1 1 1
deg: 1 1 1 1 1 1 1 1 1 1 1 1 1 1 1 1 1 1 1 1 1 1 1 1 1 1 1 1 1 1 1 1 1 1 1 1 1 1 1 1 1 1 1 1 1 1 1 1
deg: 1 1 1 1 1 1 1 1 1 1 1 1 1 1 1 1 1 1 1 1 1 1 1 1 1 1 1 1 1 1 1 1 1 1 1 1 1 1 1 1 1 1 1 1 1 1 1 1
deg: 1 1 1 1 1 1 1 1 1 1 1 1 1 1 1 1 1 1 1 1 1 1 1 1 1 1 1 1 1 1 1 1 1 1 1 1 1 1 1 1 1 1 1 1 1 1 1 1
deg: 1 1 1 1 1 1 1 1 1 1 1 1 1 1 1 1 1 1 1 1 1 1 1 1 1 1 1 1 1 1 1 1 1 1 1 1 1 1 1 1 1 1 1 1 1 1 1 1
deg: 1 1 1 1 1 1 1 1 1 1 1 1 1 1 1 1 1 1 1 1 1 1 1 1 1 1 1 1 1 1 1 1 1 1 1 1 1 1 1 1 1 1 1 1 1 1 1 1
deg: 1 1 1 1 1 1 1 1 1 1 1 1 1 1 1 1 1 1 1 1 1 1 1 1 1 1 1 1 1 1 1 1 1 1 1 1 1 1 1 1 1 1 1 1 1 1 1 1
deg: 1 1 1 1 1 1 1 1 1 1 1 1 1 1 1 1 1 1 1 1 1 1 1 1 1 1 1 1 1 1 1 1 1 1 1 1 1 1 1 1 1 1 1 1 1 1 1 1
deg: 1 1 1 1 1 1 1 1 1 1 1 1 1 1 1 1 1 1 1 1 1 1 1 1 1 1 1 1 1 1 1 1 1 1 1 1 1 1 1 1 1 1 1 1 1 1 1 1
deg: 1 1 1 1 1 1 1 1 1 1 1 1 1 1 1 1 1 1 1 1 1 1 1 1 1 1 1 1 1 1 1 1 1 1 1 1 1 1 1 1 1 1 1 1 1 1 1 1
deg: 1 1 1 1 1 1 1 1 1 1 1 1 1 1 1 1 1 1 1 1 1 1 1 1 1 1 1 1 1 1 1 1 1 1 1 1 1 1 1 1 1 1 1 1 1 1 1 1
deg: 1 1 1 1 1 1 1 1 1 1 1 1 1 1 1 1 1 1 1 1 1 1 1 1 1 1 1 1 1 1 1 1 1 1 1 1 1 1 1 1 1 1 1 1 1 1 1 1
deg: 1 1 1 1 1 1 1 1 1 1 1 1 1 1 1 1 1 1 1 1 1 1 1 1 1 1 1 1 1 1 1 1 1 1 1 1 1 1 1 1 1 1 1 1 1 1 1 1
deg: 1 1 1 1 1 1 1 1 1 1 1 1 1 1 1 1 1 1 1 1 1 1 1 1 1 1 1 1 1 1 1 1 1 1 1 1 1 1 1 1 1 1 1 1 1 1 1 1
deg: 1 1 1 1 1 1 1 1 1 1 1 1 1 1 1 1 1 1 1 1 1 1 1 1 1 1 1 1 1 1 1 1 1 1 1 1 1 1 1 1 1 1 1 1 1 1 1 1
deg: 1 1 1 1 1 1 1 1 1 1 1 1 1 1 1 1 1 1 1 1 1 1 1 1 1 1 1 1 1 1 1 1 1 1 1 1 1 1 1 1 1 1 1 1 1 1 1 1
deg: 1 1 1 1 1 1 1 1 1 1 1 1 1 1 1 1 1 1 1 1 1 1 1 1 1 1 1 1 1 1 1 1 1 1 1 1 1 1 1 1 1 1 1 1 1 1 1 1
deg: 1 1 1 1 1 1 1 1 1 1 1 1 1 1 1 1 1 1 1 1 1 1 1 1 1 1 1 1 1 1 1 1 1 1 1 1 1 1 1 1 1 1 1 1 1 1 1 1
deg: 1 1 1 1 1 1 1 1 1 1 1 1 1 1 1 1 1 1 1 1 1 1 1 1 1 1 1 1 1 1 1 1 1 1 1 1 1 1 1 1 1 1 1 1 1 1 1 1
deg: 1 1 1 1 1 1 1 1 1 1 1 1 1 1 1 1 1 1 1 1 1 1 1 1 1 1 1 1 1 1 1 1 1 1 1 1 1 1 1 1 1 1 1 1 1 1 1 1
deg: 1 1 1 1 1 1 1 1 1 1 1 1 1 1 1 1 1 1 1 1 1 1 1 1 1 1 1 1 1 1 1 1 1 1 1 1 1 1 1 1 1 1 1 1 1 1 1 1
deg: 1 1 1 1 1 1 1 1 1 1 1 1 1 1 1 1 1 1 1 1 1 1 1 1 1 1 1 1 1 1 1 1 1 1 1 1 1 1 1 1 1 1 1 1 1 1 1 1
deg: 1 1 1 1 2 1 1 1 1 1 1 1 1 1 1 1 1 1 1 1 1 1 1 1 1 1 1 1 1 1 1 1 1 1 1 1 1 1 1 1 1 1 1 1 1 1 1 1
deg: 1 1 1 1 1 1 1 1 1 1 1 1 1 1 1 1 1 1 1 1 1 1 1 1 1 1 1 1 1 1 1 1 1 1 1 1 1 1 1 1 1 1 1 1 1 1 1 1
deg: 1 1 1 1 1 1 1 1 1 1 1 1 1 1 1 1 1 1 1 1 1 1 1 1 1 1 1 1 1 1 1 1 1 1 1 1 1 1 1 1 1 1 1 1 1 1 1 1
deg: 1 1 1 1 1 1 1 1 1 1 1 1 1 1 1 1 1 1 1 1 1 1 1 1 1 1 1 1 1 1 1 1 1 1 1 1 1 1 1 1 1 1 1 1 1 1 1 1
deg: 1 1 1 1 1 1 1 1 1 1 1 1 1 1 1 1 1 1 1 1 1 1 1 1 1 1 1 1 1 1 1 1 1 1 1 1 1 1 1 1 1 1 1 1 1 1 1 1
deg: 1 1 1 1 1 1 1 1 1 1 1 1 1 1 1 1 1 1 1 1 1 1 1 1 1 1 1 1 1 1 1 1 1 1 1 1 1 1 1 1 1 1 1 1 1 1 1 1
deg: 1 1 1 1 1 1 1 1 1 1 1 1 1 1 1 1 1 1 1 1 1 1 1 1 1 1 1 1 1 1 1 1 1 1 1 1 1 1 1 1 1 1 1 1 1 1 1 1
deg: 1 1 1 1 1 1 1 1 1 1 1 1 1 1 1 1 1 1 1 1 1 1 1 1 1 1 1 1 1 1 1 1 1 1 1 1 1 1 1 1 1 1 1 1 1 1 1 1
deg: 1 1 1 1 1 1 1 1 1 1 1 1 1 1 1 1 1 1 1 1 1 1 1 1 1 1 1 1 1 1 1 1 1 1 1 1 1 1 1 1 1 1 1 1 1 1 1 1
deg: 1 1 1 1 1 1 1 1 1 1 1 1 1 1 1 1 1 1 1 1 1 1 1 1 1 1 1 1 1 1 1 1 1 1 1 1 1 1 1 1 1 1 1 1 1 1 1 1
deg: 1 1 1 1 1 1 1 1 1 1 1 1 1 1 1 1 1 1 1 1 1 1 1 1 1 1 1 1 1 1 1 1 1 1 1 1 1 1 1 1 1 1 1 1 1 1 1 1
deg: 1 1 1 1 1 1 1 1 1 1 1 1 1 1 1 1 1 1 1 1 1 1 1 1 1 1 1 1 1 1 1 1 1 1 1 1 1 1 1 1 1 1 1 1 1 1 1 1
deg: 1 1 1 1 1 1 1 1 1 1 1 1 1 1 1 1 1 1 1 1 1 1 1 1 1 1 1 1 1 1 1 1 1 1 1 1 1 1 1 1 1 1 1 1 1 1 1 1
deg: 1 1 1 1 1 1 1 1 1 1 1 1 1 1 1 1 1 1 1 1 1 1 1 1 1 1 1 1 1 1 1 1 1 1 1 1 1 1 1 1 1 1 1 1 1 1 1 1
deg: 1 1 1 1 1 1 1 1 1 1 1 1 1 1 1 1 1 1 1 1 1 1 1 1 1 1 1 1 1 1 1 1 1 1 1 1 1 1 1 1 1 1 1 1 1 1 1 1
deg: 1 1 1 1 1 1 1 1 1 1 1 1 1 1 1 1 1 1 1 1 1 1 1 1 1 1 1 1 1 1 1 1 1 1 1 1 1 1 1 1 1 1 1 1 1 1 1 1
deg: 1 1 1 1 1 1 1 1 1 1 1 1 1 1 1 1 1 1 1 1 1 1 1 1 1 1 1 1 1 1 1 1 1 1 1 1 1 1 1 1 1 1 1 1 1 1 1 1
deg: 1 1 1 1 1 1 1 1 1 1 1 1 1 1 1 1 1 1 1 1 1 1 1 1 1 1 1 1 1 1 1 1 1 1 1 1 1 1 1 1 1 1 1 1 1 1 1 1
deg: 1 1 1 1 1 1 1 1 1 1 1 1 1 1 1 1 1 1 1 1 1 1 1 1 1 1 1 1 1 1 1 1 1 1 1 1 1 1 1 1 1 1 1 1 1 1 1 1
deg: 1 1 1 1 1 1 1 1 1 1 1 1 1 1 1 1 1 1 1 1 1 1 1 1 1 1 1 1 1 1 1 1 1 1 1 1 1 1 1 1 1 1 1 1 1 1 1 1
deg: 1 1 1 1 1 1 1 1 1 1 1 1 1 1 1 1 1 1 1 1 1 1 1 1 1 1 1 1 1 1 1 1 1 1 1 1 1 1 1 1 1 1 1 1 1 1 1 1
deg: 1 1 1 1 1 1 1 1 1 1 1 1 1 1 1 1 1 1 1 1 1 1 1 1 1 1 1 1 1 1 1 1 1 1 1 1 1 1 1 1 1 1 1 1 1 1 1 1
deg: 1 1 1 1 1 1 1 1 1 1 1 1 1 1 1 1 1 1 1 1 1 1 1 1 1 1 1 1 1 1 1 1 1 1 1 1 1 1 1 1 1 1 1 1 1 1 1 1
  224
deg: 1 1 1 1 1 1 1 1 1 1 1 1 1 1 1 1 1 1 1 1 1 1 1 1 1 1 1 1 1 1 1 1 1 1 1 1 1 1 1 1 1 1 1 1 1 1 1 1
deg: 1 1 1 1 1 1 1 1 1 1 1 1 1 1 1 1 1 1 1 1 1 1 1 1 1 1 1 1 1 1 1 1 1 1 1 1 1 1 1 1 1 1 1 1 1 1 1 1
deg: 1 1 1 1 1 1 1 1 1 1 1 1 1 1 1 1 1 1 1 1 1 1 1 1 1 1 1 1 1 1 1 1 1 1 1 1 1 1 1 1 1 1 1 1 1 1 1 1
deg: 1 1 1 1 1 1 1 1 1 1 1 1 1 1 1 1 1 1 1 1 1 1 1 1 1 1 1 1 1 1 1 1 1 1 1 1 1 1 1 1 1 1 1 1 1 1 1 1
deg: 1 1 1 1 1 1 1 1 1 1 1 1 1 1 1 1 1 1 1 1 1 1 1 1 1 1 1 1 1 1 1 1 1 1 1 1 1 1 1 1 1 1 1 1 1 1 1 1
deg: 1 1 1 1 1 1 1 1 1 1 1 1 1 1 1 1 1 1 1 1 1 1 1 1 1 1 1 1 1 1 1 1 1 1 1 1 1 1 1 1 1 1 1 1 1 1 1 1
deg: 1 1 1 1 1 1 1 1 1 1 1 1 1 1 1 1 1 1 1 1 1 1 1 1 1 1 1 1 1 1 1 1 1 1 1 1 1 1 1 1 1 1 1 1 1 1 1 1
deg: 1 1 1 1 1 1 1 1 1 1 1 1 1 1 1 1 1 1 1 1 1 1 1 1 1 1 1 1 1 1 1 1 1 1 1 1 1 1 1 1 1 1 1 1 1 1 1 1
deg: 1 1 1 1 1 1 1 1 1 1 1 1 1 1 1 1 1 1 1 1 1 1 1 1 1 1 1 1 1 1 1 1 1 1 1 1 1 1 1 1 1 1 1 1 1 1 1 1
deg: 1 1 1 1 1 1 1 1 1 1 1 1 1 1 1 1 1 1 1 1 1 1 1 1 1 1 1 1 1 1 1 1 1 1 1 1 1 1 1 1 1 1 1 1 1 1 1 1
deg: 1 1 1 1 1 1 1 1 1 1 1 1 1 1 1 1 1 1 1 1 1 1 1 1 1 1 1 1 1 1 1 1 1 1 1 1 1 1 1 1 1 1 1 1 1 1 1 1
deg: 1 1 1 1 1 1 1 1 1 1 1 1 1 1 1 1 1 1 1 1 1 1 1 1 1 1 1 1 1 1 1 1 1 1 1 1 1 1 1 1 1 1 1 1 1 1 1 1
deg: 1 1 1 1 1 1 1 1 1 1 1 1 1 1 1 1 1 1 1 1 1 1 1 1 1 1 1 1 1 1 1 1 1 1 1 1 1 1 1 1 1 1 1 1 1 1 1 1
deg: 1 1 1 1 1 1 1 1 1 1 1 1 1 1 1 1 1 1 1 1 1 1 1 1 1 1 1 1 1 1 1 1 1 1 1 1 1 1 1 1 1 1 1 1 1 1 1 1
deg: 1 1 1 1 1 1 1 1 1 1 1 1 1 1 1 1 1 1 1 1 1 1 1 1 1 1 1 1 1 1 1 1 1 1 1 1 1 1 1 1 1 1 1 1 1 1 1 1
deg: 1 1 1 1 1 1 1 1 1 1 1 1 1 1 1 1 1 1 1 1 1 1 1 1 1 1 1 1 1 1 1 1 1 1 1 1 1 1 1 1 1 1 1 1 1 1 1 1
deg: 1 1 1 1 1 1 1 1 1 1 1 1 1 1 1 1 1 1 1 1 1 1 1 1 1 1 1 1 1 1 1 1 1 1 1 1 1 1 1 1 1 1 1 1 1 1 1 1
deg: 1 1 1 1 1 1 1 1 1 1 1 1 1 1 1 1 1 1 1 1 1 1 1 1 1 1 1 1 1 1 1 1 1 1 1 1 1 1 1 1 1 1 1 1 1 1 1 1
deg: 1 1 1 1 1 1 1 1 1 1 1 1 1 1 1 1 1 1 1 1 1 1 1 1 1 1 1 1 1 1 1 1 1 1 1 1 1 1 1 1 1 1 1 1 1 1 1 1
deg: 1 1 1 1 1 1 1 1 1 1 1 1 1 1 1 1 1 1 1 1 1 1 1 1 1 1 1 1 1 1 1 1 1 1 1 1 1 1 1 1 1 1 1 1 1 1 1 1
deg: 1 1 1 1 1 1 1 1 1 1 1 1 1 1 1 1 1 1 1 1 1 1 1 1 1 1 1 1 1 1 1 1 1 1 1 1 1 1 1 1 1 1 1 1 1 1 1 1
deg: 1 1 1 1 1 1 1 1 1 1 1 1 1 1 1 1 1 1 1 1 1 1 1 1 1 1 1 1 1 1 1 1 1 1 1 1 1 1 1 1 1 1 1 1 1 1 1 1
deg: 1 1 1 1 1 1 1 1 1 1 1 1 1 1 1 1 1 1 1 1 1 1 1 1 1 1 1 1 1 1 1 1 1 1 1 1 1 1 1 1 1 1 1 1 1 1 1 1
deg: 1 1 1 1 1 1 1 1 1 1 1 1 1 1 1 1 1 1 1 1 1 1 1 1 1 1 1 1 1 1 1 1 1 1 1 1 1 1 1 1 1 1 1 1 1 1 1 1
deg: 1 1 1 1 1 1 1 1 1 1 1 1 1 1 1 1 1 1 1 1 1 1 1 1 1 1 1 1 1 1 1 1 1 1 1 1 1 1 1 1 1 1 1 1 1 1 1 1
deg: 1 1 1 1 2 1 1 1 1 1 1 1 1 1 1 1 1 1 1 1 1 1 1 1 1 1 1 1 1 1 1 1 1 1 1 1 1 1 1 1 1 1 1 1 1 1 1 1
deg: 1 1 1 1 1 1 1 1 1 1 1 1 1 1 1 1 1 1 1 1 1 1 1 1 1 1 1 1 1 1 1 1 1 1 1 1 1 1 1 1 1 1 1 1 1 1 1 1
deg: 1 1 1 1 1 1 1 1 1 1 1 1 1 1 1 1 1 1 1 1 1 1 1 1 1 1 1 1 1 1 1 1 1 1 1 1 1 1 1 1 1 1 1 1 1 1 1 1
deg: 1 1 1 1 1 1 1 1 1 1 1 1 1 1 1 1 1 1 1 1 1 1 1 1 1 1 1 1 1 1 1 1 1 1 1 1 1 1 1 1 1 1 1 1 1 1 1 1
deg: 1 1 1 1 1 1 1 1 1 1 1 1 1 1 1 1 1 1 1 1 1 1 1 1 1 1 1 1 1 1 1 1 1 1 1 1 1 1 1 1 1 1 1 1 1 1 1 1
deg: 1 1 1 1 1 1 1 1 1 1 1 1 1 1 1 1 1 1 1 1 1 1 1 1 1 1 1 1 1 1 1 1 1 1 1 1 1 1 1 1 1 1 1 1 1 1 1 1
deg: 1 1 1 1 1 1 1 1 1 1 1 1 1 1 1 1 1 1 1 1 1 1 1 1 1 1 1 1 1 1 1 1 1 1 1 1 1 1 1 1 1 1 1 1 1 1 1 1
deg: 1 1 1 1 1 1 1 1 1 1 1 1 1 1 1 1 1 1 1 1 1 1 1 1 1 1 1 1 1 1 1 1 1 1 1 1 1 1 1 1 1 1 1 1 1 1 1 1
deg: 1 1 1 1 1 1 1 1 1 1 1 1 1 1 1 1 1 1 1 1 1 1 1 1 1 1 1 1 1 1 1 1 1 1 1 1 1 1 1 1 1 1 1 1 1 1 1 1
deg: 1 1 1 1 1 1 1 1 1 1 1 1 1 1 1 1 1 1 1 1 1 1 1 1 1 1 1 1 1 1 1 1 1 1 1 1 1 1 1 1 1 1 1 1 1 1 1 1
deg: 1 1 1 1 1 1 1 1 1 1 1 1 1 1 1 1 1 1 1 1 1 1 1 1 1 1 1 1 1 1 1 1 1 1 1 1 1 1 1 1 1 1 1 1 1 1 1 1
deg: 1 1 1 1 1 1 1 1 1 1 1 1 1 1 1 1 1 1 1 1 1 1 1 1 1 1 1 1 1 1 1 1 1 1 1 1 1 1 1 1 1 1 1 1 1 1 1 1
deg: 1 1 1 1 1 1 1 1 1 1 1 1 1 1 1 1 1 1 1 1 1 1 1 1 1 1 1 1 1 1 1 1 1 1 1 1 1 1 1 1 1 1 1 1 1 1 1 1
deg: 1 1 1 1 1 1 1 1 1 1 1 1 1 1 1 1 1 1 1 1 1 1 1 1 1 1 1 1 1 1 1 1 1 1 1 1 1 1 1 1 1 1 1 1 1 1 1 1
deg: 1 1 1 1 1 1 1 1 1 1 1 1 1 1 1 1 1 1 1 1 1 1 1 1 1 1 1 1 1 1 1 1 1 1 1 1 1 1 1 1 1 1 1 1 1 1 1 1
deg: 1 1 1 1 1 1 1 1 1 1 1 1 1 1 1 1 1 1 1 1 1 1 1 1 1 1 1 1 1 1 1 1 1 1 1 1 1 1 1 1 1 1 1 1 1 1 1 1
deg: 1 1 1 1 1 1 1 1 1 1 1 1 1 1 1 1 1 1 1 1 1 1 1 1 1 1 1 1 1 1 1 1 1 1 1 1 1 1 1 1 1 1 1 1 1 1 1 1
deg: 1 1 1 1 1 1 1 1 1 1 1 1 1 1 1 1 1 1 1 1 1 1 1 1 1 1 1 1 1 1 1 1 1 1 1 1 1 1 1 1 1 1 1 1 1 1 1 1
deg: 1 1 1 1 1 1 1 1 1 1 1 1 1 1 1 1 1 1 1 1 1 1 1 1 1 1 1 1 1 1 1 1 1 1 1 1 1 1 1 1 1 1 1 1 1 1 1 1
deg: 1 1 1 1 1 1 1 1 1 1 1 1 1 1 1 1 1 1 1 1 1 1 1 1 1 1 1 1 1 1 1 1 1 1 1 1 1 1 1 1 1 1 1 1 1 1 1 1
deg: 1 1 1 1 1 1 1 1 1 1 1 1 1 1 1 1 1 1 1 1 1 1 1 1 1 1 1 1 1 1 1 1 1 1 1 1 1 1 1 1 1 1 1 1 1 1 1 1
deg: 1 1 1 1 1 1 1 1 1 1 1 1 1 1 1 1 1 1 1 1 1 1 1 1 1 1 1 1 1 1 1 1 1 1 1 1 1 1 1 1 1 1 1 1 1 1 1 1
deg: 1 1 1 1 1 1 1 1 1 1 1 1 1 1 1 1 1 1 1 1 1 1 1 1 1 1 1 1 1 1 1 1 1 1 1 1 1 1 1 1 1 1 1 1 1 1 1 1
  225
deg: 1 1 1 1 1 1 1 1 1 1 1 1 1 1 1 1 1 1 1 1 1 1 1 1 1 1 1 1 1 1 1 1 1 1 1 1 1 1 1 1 1 1 1 1 1 1 1 1
deg: 1 1 1 1 1 1 1 1 1 1 1 1 1 1 1 1 1 1 1 1 1 1 1 1 1 1 1 1 1 1 1 1 1 1 1 1 1 1 1 1 1 1 1 1 1 1 1 1
deg: 1 1 1 1 1 1 1 1 1 1 1 1 1 1 1 1 1 1 1 1 1 1 1 1 1 1 1 1 1 1 1 1 1 1 1 1 1 1 1 1 1 1 1 1 1 1 1 1
deg: 1 1 1 1 1 1 1 1 1 1 1 1 1 1 1 1 1 1 1 1 1 1 1 1 1 1 1 1 1 1 1 1 1 1 1 1 1 1 1 1 1 1 1 1 1 1 1 1
deg: 1 1 1 1 1 1 1 1 1 1 1 1 1 1 1 1 1 1 1 1 1 1 1 1 1 1 1 1 1 1 1 1 1 1 1 1 1 1 1 1 1 1 1 1 1 1 1 1
deg: 1 1 1 1 1 1 1 1 1 1 1 1 1 1 1 1 1 1 1 1 1 1 1 1 1 1 1 1 1 1 1 1 1 1 1 1 1 1 1 1 1 1 1 1 1 1 1 1
deg: 1 1 1 1 1 1 1 1 1 1 1 1 1 1 1 1 1 1 1 1 1 1 1 1 1 1 1 1 1 1 1 1 1 1 1 1 1 1 1 1 1 1 1 1 1 1 1 1
deg: 1 1 1 1 1 1 1 1 1 1 1 1 1 1 1 1 1 1 1 1 1 1 1 1 1 1 1 1 1 1 1 1 1 1 1 1 1 1 1 1 1 1 1 1 1 1 1 1
deg: 1 1 1 1 1 1 1 1 1 1 1 1 1 1 1 1 1 1 1 1 1 1 1 1 1 1 1 1 1 1 1 1 1 1 1 1 1 1 1 1 1 1 1 1 1 1 1 1
deg: 1 1 1 1 1 1 1 1 1 1 1 1 1 1 1 1 1 1 1 1 1 1 1 1 1 1 1 1 1 1 1 1 1 1 1 1 1 1 1 1 1 1 1 1 1 1 1 1
deg: 1 1 1 1 1 1 1 1 1 1 1 1 1 1 1 1 1 1 1 1 1 1 1 1 1 1 1 1 1 1 1 1 1 1 1 1 1 1 1 1 1 1 1 1 1 1 1 1
deg: 1 1 1 1 1 1 1 1 1 1 1 1 1 1 1 1 1 1 1 1 1 1 1 1 1 1 1 1 1 1 1 1 1 1 1 1 1 1 1 1 1 1 1 1 1 1 1 1
deg: 1 1 1 1 1 1 1 1 1 1 1 1 1 1 1 1 1 1 1 1 1 1 1 1 1 1 1 1 1 1 1 1 1 1 1 1 1 1 1 1 1 1 1 1 1 1 1 1
deg: 1 1 1 1 1 1 1 1 1 1 1 1 1 1 1 1 1 1 1 1 1 1 1 1 1 1 1 1 1 1 1 1 1 1 1 1 1 1 1 1 1 1 1 1 1 1 1 1
deg: 1 1 1 1 1 1 1 1 1 1 1 1 1 1 1 1 1 1 1 1 1 1 1 1 1 1 1 1 1 1 1 1 1 1 1 1 1 1 1 1 1 1 1 1 1 1 1 1
deg: 1 1 1 1 1 1 1 1 1 1 1 1 1 1 1 1 1 1 1 1 1 1 1 1 1 1 1 1 1 1 1 1 1 1 1 1 1 1 1 1 1 1 1 1 1 1 1 1
deg: 1 1 1 1 1 1 1 1 1 1 1 1 1 1 1 1 1 1 1 1 1 1 1 1 1 1 1 1 1 1 1 1 1 1 1 1 1 1 1 1 1 1 1 1 1 1 1 1
deg: 1 1 1 1 1 1 1 1 1 1 1 1 1 1 1 1 1 1 1 1 1 1 1 1 1 1 1 1 1 1 1 1 1 1 1 1 1 1 1 1 1 1 1 1 1 1 1 1
deg: 1 1 1 1 1 1 1 1 1 1 1 1 1 1 1 1 1 1 1 1 1 1 1 1 1 1 1 1 1 1 1 1 1 1 1 1 1 1 1 1 1 1 1 1 1 1 1 1
deg: 1 1 1 1 1 1 1 1 1 1 1 1 1 1 1 1 1 1 1 1 1 1 1 1 1 1 1 1 1 1 1 1 1 1 1 1 1 1 1 1 1 1 1 1 1 1 1 1
deg: 1 1 1 1 1 1 1 1 1 1 1 1 1 1 1 1 1 1 1 1 1 1 1 1 1 1 1 1 1 1 1 1 1 1 1 1 1 1 1 1 1 1 1 1 1 1 1 1
deg: 1 1 1 1 1 1 1 1 1 1 1 1 1 1 1 1 1 1 1 1 1 1 1 1 1 1 1 1 1 1 1 1 1 1 1 1 1 1 1 1 1 1 1 1 1 1 1 1
deg: 1 1 1 1 1 1 1 1 1 1 1 1 1 1 1 1 1 1 1 1 1 1 1 1 1 1 1 1 1 1 1 1 1 1 1 1 1 1 1 1 1 1 1 1 1 1 1 1
deg: 1 1 1 1 1 1 1 1 1 1 1 1 1 1 1 1 1 1 1 1 1 1 1 1 1 1 1 1 1 1 1 1 1 1 1 1 1 1 1 1 1 1 1 1 1 1 1 1
deg: 1 1 1 1 1 1 1 1 1 1 1 1 1 1 1 1 1 1 1 1 1 1 1 1 1 1 1 1 1 1 1 1 1 1 1 1 1 1 1 1 1 1 1 1 1 1 1 1
deg: 1 1 1 1 2 1 1 1 1 1 1 1 1 1 1 1 1 1 1 1 1 1 1 1 1 1 1 1 1 1 1 1 1 1 1 1 1 1 1 1 1 1 1 1 1 1 1 1
deg: 1 1 1 1 1 1 1 1 1 1 1 1 1 1 1 1 1 1 1 1 1 1 1 1 1 1 1 1 1 1 1 1 1 1 1 1 1 1 1 1 1 1 1 1 1 1 1 1
deg: 1 1 1 1 1 1 1 1 1 1 1 1 1 1 1 1 1 1 1 1 1 1 1 1 1 1 1 1 1 1 1 1 1 1 1 1 1 1 1 1 1 1 1 1 1 1 1 1
deg: 1 1 1 1 1 1 1 1 1 1 1 1 1 1 1 1 1 1 1 1 1 1 1 1 1 1 1 1 1 1 1 1 1 1 1 1 1 1 1 1 1 1 1 1 1 1 1 1
deg: 1 1 1 1 1 1 1 1 1 1 1 1 1 1 1 1 1 1 1 1 1 1 1 1 1 1 1 1 1 1 1 1 1 1 1 1 1 1 1 1 1 1 1 1 1 1 1 1
deg: 1 1 1 1 1 1 1 1 1 1 1 1 1 1 1 1 1 1 1 1 1 1 1 1 1 1 1 1 1 1 1 1 1 1 1 1 1 1 1 1 1 1 1 1 1 1 1 1
deg: 1 1 1 1 1 1 1 1 1 1 1 1 1 1 1 1 1 1 1 1 1 1 1 1 1 1 1 1 1 1 1 1 1 1 1 1 1 1 1 1 1 1 1 1 1 1 1 1
deg: 1 1 1 1 1 1 1 1 1 1 1 1 1 1 1 1 1 1 1 1 1 1 1 1 1 1 1 1 1 1 1 1 1 1 1 1 1 1 1 1 1 1 1 1 1 1 1 1
deg: 1 1 1 1 1 1 1 1 1 1 1 1 1 1 1 1 1 1 1 1 1 1 1 1 1 1 1 1 1 1 1 1 1 1 1 1 1 1 1 1 1 1 1 1 1 1 1 1
deg: 1 1 1 1 1 1 1 1 1 1 1 1 1 1 1 1 1 1 1 1 1 1 1 1 1 1 1 1 1 1 1 1 1 1 1 1 1 1 1 1 1 1 1 1 1 1 1 1
deg: 1 1 1 1 1 1 1 1 1 1 1 1 1 1 1 1 1 1 1 1 1 1 1 1 1 1 1 1 1 1 1 1 1 1 1 1 1 1 1 1 1 1 1 1 1 1 1 1
deg: 1 1 1 1 1 1 1 1 1 1 1 1 1 1 1 1 1 1 1 1 1 1 1 1 1 1 1 1 1 1 1 1 1 1 1 1 1 1 1 1 1 1 1 1 1 1 1 1
deg: 1 1 1 1 1 1 1 1 1 1 1 1 1 1 1 1 1 1 1 1 1 1 1 1 1 1 1 1 1 1 1 1 1 1 1 1 1 1 1 1 1 1 1 1 1 1 1 1
deg: 1 1 1 1 1 1 1 1 1 1 1 1 1 1 1 1 1 1 1 1 1 1 1 1 1 1 1 1 1 1 1 1 1 1 1 1 1 1 1 1 1 1 1 1 1 1 1 1
deg: 1 1 1 1 1 1 1 1 1 1 1 1 1 1 1 1 1 1 1 1 1 1 1 1 1 1 1 1 1 1 1 1 1 1 1 1 1 1 1 1 1 1 1 1 1 1 1 1
deg: 1 1 1 1 1 1 1 1 1 1 1 1 1 1 1 1 1 1 1 1 1 1 1 1 1 1 1 1 1 1 1 1 1 1 1 1 1 1 1 1 1 1 1 1 1 1 1 1
deg: 1 1 1 1 1 1 1 1 1 1 1 1 1 1 1 1 1 1 1 1 1 1 1 1 1 1 1 1 1 1 1 1 1 1 1 1 1 1 1 1 1 1 1 1 1 1 1 1
deg: 1 1 1 1 1 1 1 1 1 1 1 1 1 1 1 1 1 1 1 1 1 1 1 1 1 1 1 1 1 1 1 1 1 1 1 1 1 1 1 1 1 1 1 1 1 1 1 1
deg: 1 1 1 1 1 1 1 1 1 1 1 1 1 1 1 1 1 1 1 1 1 1 1 1 1 1 1 1 1 1 1 1 1 1 1 1 1 1 1 1 1 1 1 1 1 1 1 1
deg: 1 1 1 1 1 1 1 1 1 1 1 1 1 1 1 1 1 1 1 1 1 1 1 1 1 1 1 1 1 1 1 1 1 1 1 1 1 1 1 1 1 1 1 1 1 1 1 1
deg: 1 1 1 1 1 1 1 1 1 1 1 1 1 1 1 1 1 1 1 1 1 1 1 1 1 1 1 1 1 1 1 1 1 1 1 1 1 1 1 1 1 1 1 1 1 1 1 1
deg: 1 1 1 1 1 1 1 1 1 1 1 1 1 1 1 1 1 1 1 1 1 1 1 1 1 1 1 1 1 1 1 1 1 1 1 1 1 1 1 1 1 1 1 1 1 1 1 1
deg: 1 1 1 1 1 1 1 1 1 1 1 1 1 1 1 1 1 1 1 1 1 1 1 1 1 1 1 1 1 1 1 1 1 1 1 1 1 1 1 1 1 1 1 1 1 1 1 1
 ------------------------------------------------------------------------------
 Time to calculate interpolated band structure      19.812 (sec)
 
 
 Calculating Fermi surface
 
 Time to calculate interpolated Fermi surface     177.862 (sec)
 
      Wannier Function Num:    1       Maximum Im/Re Ratio =    0.000536
      Wannier Function Num:    2       Maximum Im/Re Ratio =    0.000491
      Wannier Function Num:    3       Maximum Im/Re Ratio =    0.000547
      Wannier Function Num:    4       Maximum Im/Re Ratio =    0.000522
      Wannier Function Num:    5       Maximum Im/Re Ratio =    0.000636
      Wannier Function Num:    6       Maximum Im/Re Ratio =    0.000484
      Wannier Function Num:    7       Maximum Im/Re Ratio =    0.000469
      Wannier Function Num:    8       Maximum Im/Re Ratio =    0.000585
      Wannier Function Num:    9       Maximum Im/Re Ratio =    0.000569
      Wannier Function Num:   10       Maximum Im/Re Ratio =    0.000623
      Wannier Function Num:   11       Maximum Im/Re Ratio =    0.000553
      Wannier Function Num:   12       Maximum Im/Re Ratio =    0.000500
      Wannier Function Num:   13       Maximum Im/Re Ratio =    0.000356
      Wannier Function Num:   14       Maximum Im/Re Ratio =    0.000444
      Wannier Function Num:   15       Maximum Im/Re Ratio =    0.000438
      Wannier Function Num:   16       Maximum Im/Re Ratio =    0.000482
      Wannier Function Num:   17       Maximum Im/Re Ratio =    0.000571
      Wannier Function Num:   18       Maximum Im/Re Ratio =    0.000486
      Wannier Function Num:   19       Maximum Im/Re Ratio =    0.000744
      Wannier Function Num:   20       Maximum Im/Re Ratio =    0.000411
      Wannier Function Num:   21       Maximum Im/Re Ratio =    0.000550
      Wannier Function Num:   22       Maximum Im/Re Ratio =    0.000405
      Wannier Function Num:   23       Maximum Im/Re Ratio =    0.000465
      Wannier Function Num:   24       Maximum Im/Re Ratio =    0.000376
      Wannier Function Num:   25       Maximum Im/Re Ratio =    0.000755
      Wannier Function Num:   26       Maximum Im/Re Ratio =    0.000403
      Wannier Function Num:   27       Maximum Im/Re Ratio =    0.000416
      Wannier Function Num:   28       Maximum Im/Re Ratio =    0.000646
      Wannier Function Num:   29       Maximum Im/Re Ratio =    0.000677
      Wannier Function Num:   30       Maximum Im/Re Ratio =    0.000622
      Wannier Function Num:   31       Maximum Im/Re Ratio =    0.000462
      Wannier Function Num:   32       Maximum Im/Re Ratio =    0.000668
      Wannier Function Num:   33       Maximum Im/Re Ratio =    0.000493
      Wannier Function Num:   34       Maximum Im/Re Ratio =    0.000676
      Wannier Function Num:   35       Maximum Im/Re Ratio =    0.000548
      Wannier Function Num:   36       Maximum Im/Re Ratio =    0.000522
      Wannier Function Num:   37       Maximum Im/Re Ratio =    0.000327
      Wannier Function Num:   38       Maximum Im/Re Ratio =    0.000410
      Wannier Function Num:   39       Maximum Im/Re Ratio =    0.000285
      Wannier Function Num:   40       Maximum Im/Re Ratio =    0.000504
      Wannier Function Num:   41       Maximum Im/Re Ratio =    0.000595
      Wannier Function Num:   42       Maximum Im/Re Ratio =    0.000555
      Wannier Function Num:   43       Maximum Im/Re Ratio =    0.000789
      Wannier Function Num:   44       Maximum Im/Re Ratio =    0.000630
      Wannier Function Num:   45       Maximum Im/Re Ratio =    0.000425
      Wannier Function Num:   46       Maximum Im/Re Ratio =    0.000432
      Wannier Function Num:   47       Maximum Im/Re Ratio =    0.000481
      Wannier Function Num:   48       Maximum Im/Re Ratio =    0.000380
  
 Time for plotting            424.133 (sec)
 Total Execution Time        4579.337 (sec)

 *===========================================================================*
 |                             TIMING INFORMATION                            |
 *===========================================================================*
 |    Tag                                                Ncalls      Time (s)|
 |---------------------------------------------------------------------------|
 |kmesh: get                                        :         1         0.079|
 |overlap: read                                     :         1        10.472|
 |dis: main                                         :         1      4141.850|
 |wann: main                                        :         1         2.697|
 |plot: main                                        :         1       424.133|
 *---------------------------------------------------------------------------*
 
 All done: wannier90 exiting
